<VTKFile type="PolyData" version="1.0" byte_order="LittleEndian" header_type="UInt64">
  <PolyData>
    <Piece NumberOfPoints="311" NumberOfVerts="0" NumberOfLines="0" NumberOfStrips="0" NumberOfPolys="547">
      <PointData Normals="Normal">
        <DataArray type="Int32" Name="Section Id" format="ascii" RangeMin="0" RangeMax="82">
          44 44 44 44 44 44
          44 44 44 44 44 44
          44 44 44 44 44 44
          44 44 44 44 44 44
          44 44 44 44 44 44
          44 44 44 44 44 44
          44 44 44 44 44 44
          44 44 44 44 44 44
          44 44 44 44 44 44
          44 44 44 44 44 44
          44 44 44 44 44 44
          44 44 44 44 44 44
          44 44 44 44 44 44
          44 44 44 44 44 44
          44 44 44 44 44 44
          44 44 44 44 44 44
          44 44 44 44 44 44
          44 44 44 44 44 44
          44 44 44 44 44 44
          44 44 44 44 44 44
          44 44 44 44 44 44
          44 44 44 44 44 44
          44 44 44 44 44 44
          44 44 44 44 44 44
          44 44 44 44 44 44
          44 44 44 44 44 44
          44 44 44 44 44 44
          44 44 44 44 44 44
          44 44 44 44 44 44
          44 44 44 44 44 44
          44 44 44 44 44 44
          44 44 44 44 44 44
          44 44 44 44 44 44
          44 0 82 82 82 82
          82 82 82 82 82 82
          82 82 82 82 82 82
          82 82 82 82 82 82
          82 82 82 82 82 82
          82 82 82 82 82 82
          82 82 82 82 82 82
          82 82 82 82 82 82
          82 82 82 82 82 82
          82 82 82 82 82 82
          82 82 82 82 82 82
          82 82 82 82 82 82
          82 82 82 82 82 82
          82 82 82 82 82 0
          44 44 44 44 44 44
          44 44 68 0 82 69
          82 82 82 68 68 82
          82 82 82 82 82 82
          82 0 0 0 0
        </DataArray>
        <DataArray type="Float32" Name="Normal" NumberOfComponents="3" format="ascii" RangeMin="0.99999994098" RangeMax="1.0000000956">
          0.82173663378 -0.53668749332 0.19161306322 0.39409348369 -0.84661740065 -0.35767221451
          0.54015004635 -0.79935193062 -0.26320055127 0.85160547495 -0.38787341118 0.35259383917
          0.60337173939 0.28297543526 0.74556517601 0.78786402941 0.038727022707 0.61463040113
          0.83338719606 -0.4748712182 0.28277754784 0.50509488583 -0.79723882675 -0.33058956265
          0.41243717074 -0.78065615892 -0.46954408288 0.81304401159 -0.54628318548 0.2013310343
          0.64431780577 0.094723813236 0.75886887312 0.72117364407 0.048662986606 0.6910431385
          0.54172050953 -0.75163322687 -0.37627980113 0.82328277826 -0.48873072863 0.28870010376
          0.6533601284 -0.71599119902 -0.24592104554 0.82369369268 -0.45031660795 0.34459197521
          0.61182957888 0.036960233003 0.79012566805 0.66846555471 -0.015329033136 0.74358510971
          0.82485634089 -0.45869982243 0.33046415448 0.56775194407 -0.72247958183 -0.39456424117
          0.55859214067 -0.71370619535 -0.4226090014 0.82138592005 -0.49938374758 0.2755741775
          0.58572679758 0.027365034446 0.81004649401 0.53359794617 0.11368008703 0.83806329966
          0.80992633104 -0.55021387339 0.20318482816 0.49736073613 -0.67978513241 -0.53900319338
          0.59542286396 -0.66745460033 -0.44718682766 0.80122005939 -0.52462571859 0.28777486086
          0.51350808144 -0.061840105802 0.85585349798 0.55133807659 -0.016247404739 0.83412373066
          0.61863589287 -0.66343891621 -0.42087820172 0.79603415728 -0.51969909668 0.31022971869
          0.63972228765 -0.65930432081 -0.39506101608 0.79802650213 -0.50580346584 0.32759216428
          0.50753557682 -0.069786012173 0.8588001132 0.50533556938 -0.072122551501 0.8599036932
          0.64275151491 -0.65555679798 -0.39637833834 0.80456525087 -0.49767404795 0.32402983308
          0.65076756477 -0.67928600311 -0.33922293782 0.79280877113 -0.48079317808 0.3745560348
          0.49403461814 -0.090154476464 0.86475545168 0.50901681185 -0.068752326071 0.85800641775
          0.78079807758 -0.5366128087 0.32000163198 0.5754750967 -0.72232812643 -0.3834978044
          0.50144571066 -0.73217755556 -0.46094283462 0.76977550983 -0.57366323471 0.2799218595
          0.46452349424 -0.13158805668 0.87572968006 0.47119599581 -0.12189226598 0.87356543541
          0.69327503443 -0.67083418369 -0.26334634423 0.80966931581 -0.43274480104 0.39644378424
          0.68802374601 -0.5992731452 -0.40926155448 0.88578861952 -0.37085449696 0.2790081799
          0.5829642415 0.043097432703 0.81135398149 0.51981878281 -0.054691262543 0.85252410173
          0.91202890873 -0.33781719208 0.23255728185 0.68437314034 -0.56611829996 -0.45950350165
          0.61702334881 -0.56351685524 -0.5493003726 0.91646945477 -0.37915408611 0.12777304649
          0.66631883383 0.0857514292 0.74071991444 0.61892151833 0.10662230849 0.77818244696
          0.64553409815 -0.56978362799 -0.50855910778 0.91443705559 -0.32369044423 0.24295982718
          0.76091134548 -0.57239300013 -0.30558180809 0.89918470383 -0.28551590443 0.3315834105
          0.50343739986 0.22124180198 0.83522629738 0.60830098391 0.13798584044 0.78162002563
          0.89872246981 -0.36464929581 0.24357533455 0.64069366455 -0.64122712612 -0.42230251431
          0.58814311028 -0.66782909632 -0.45617100596 0.89222514629 -0.40609666705 0.19753441215
          0.71874171495 0.0071157729253 0.69524079561 0.62405693531 0.11273536086 0.77320361137
          0.6240530014 0.11982834339 0.77213925123 0.89543998241 -0.39313986897 0.20887392759
          -0.63018983603 -0.31214243174 -0.71093451977 -0.11549340189 -0.73522996902 -0.6679058075
          -0.72486811876 -0.09338414669 -0.68252885342 -0.14130076766 -0.68007618189 -0.71939599514
          -0.15326921642 -0.62588715553 -0.76470512152 -0.71659636497 -0.046818830073 -0.69591504335
          -0.59143424034 -0.17818211019 -0.78642016649 -0.13366617262 -0.57874333858 -0.8044809103
          -0.6193831563 -0.070241734385 -0.781940341 -0.054470539093 -0.57548552752 -0.81599593163
          -0.55492699146 -0.10625524074 -0.82508534193 0.063017889857 -0.60236102343 -0.79573237896
          -0.018670549616 -0.53514170647 -0.84455597401 -0.63353395462 0.015475622378 -0.77356010675
          -0.57852238417 -0.020745906979 -0.81540262699 -0.02003489621 -0.5092138052 -0.86040681601
          -0.05741513148 -0.42010554671 -0.9056571126 -0.55050420761 0.015140285715 -0.83469516039
          -0.52005529404 0.051693681628 -0.85256695747 0.049410458654 -0.42216512561 -0.90517139435
          -0.50621181726 0.06931065768 -0.85961949825 0.079318754375 -0.4190916121 -0.9044727087
          -0.50480759144 0.071363702416 -0.86027699709 0.10014007986 -0.42584949732 -0.89923536777
          -0.51517313719 0.057761542499 -0.85513758659 0.095541246235 -0.43211773038 -0.89674192667
          -0.55810153484 -0.005101850722 -0.82975703478 0.11766361445 -0.48699760437 -0.86544132233
          0.016589347273 -0.51325273514 -0.85807722807 -0.6184592247 -0.10500132293 -0.77877020836
          -0.63420861959 -0.13544285297 -0.76120603085 -0.009590305388 -0.55378603935 -0.83260381222
          0.070034950972 -0.54935199022 -0.83265089989 -0.61377900839 -0.097582802176 -0.7834239006
          -0.58966934681 -0.055146381259 -0.80575984716 0.074667513371 -0.47985899448 -0.87416255474
          0.063697464764 -0.44679236412 -0.89236724377 -0.5804246068 -0.03926718235 -0.81336671114
          -0.57865649462 -0.036274854094 -0.81476426125 0.016254998744 -0.42024731636 -0.90726399422
          -0.58316099644 -0.043809849769 -0.8111744523 0.0032987382729 -0.43240204453 -0.90167492628
          -0.61077135801 -0.091114029288 -0.7865473032 0.13863421977 -0.53298181295 -0.83469206095
          0.0021070563234 -0.55180698633 -0.83396923542 -0.64765548706 -0.15936030447 -0.74508166313
          -0.58404266834 -0.240673244 -0.77522295713 -0.066454038024 -0.55317485332 -0.83041042089
          -0.0080490037799 -0.57301783562 -0.81950342655 -0.65383023024 -0.16925831139 -0.73746705055
          -0.53590768576 0.80947303772 0.23990896344 -0.85971134901 0.37820538878 -0.34330320358
          -0.42560252547 0.81851512194 0.38587000966 -0.8207373023 0.53709423542 -0.19473084807
          -0.51241368055 0.79205626249 0.33178189397 -0.83698087931 0.46898496151 -0.28198635578
          -0.62550771236 0.74903184175 0.21838396788 -0.83155989647 0.40898534656 -0.37581804395
          -0.82076579332 0.48476222157 -0.3022403121 -0.54987221956 0.75447946787 0.35833138227
          -0.52434718609 0.73416697979 0.43134561181 -0.82288849354 0.47985902429 -0.3042858839
          -0.81858849525 0.53904563189 -0.19835019112 -0.51390814781 0.72020286322 0.46605396271
          -0.60210186243 0.70845878124 0.36818403006 -0.82350224257 0.47246468067 -0.31404024363
          -0.67964118719 0.68484979868 0.26280906796 -0.80267596245 0.44372397661 -0.39852264524
          -0.6291025877 0.67575097084 0.38417521119 -0.79564273357 0.5065587759 -0.33219096065
          -0.79506784678 0.51955533028 -0.31293672323 -0.61965334415 0.66454714537 0.41762039065
          -0.60945522785 0.65382063389 0.44842264056 -0.8011251688 0.5229614377 -0.29104965925
          -0.81812572479 0.50066649914 -0.28284883499 -0.62390118837 0.63506799936 0.45545136929
          -0.63136941195 0.57516473532 0.52015221119 -0.85532426834 0.47196146846 -0.21371202171
          -0.90073400736 0.35863852501 -0.24506470561 -0.72085881233 0.49642986059 0.48365274072
          -0.78858602047 0.46602547169 0.40118873119 -0.92869842052 0.30012559891 -0.21781606972
          -0.91618138552 0.36149823666 -0.17300491035 -0.60116183758 0.52448904514 0.6029227376
          -0.63420885801 0.6092158556 0.47606220841 -0.88761907816 0.39908108115 -0.22992751002
          -0.6398665905 0.63853174448 0.4276072681 -0.87468922138 0.40654551983 -0.26389312744
          -0.72790455818 0.62329530716 0.28575849533 -0.86195224524 0.35442006588 -0.36252573133
          -0.87778228521 0.41007268429 -0.24766652286 -0.62416672707 0.64209336042 0.44512033463
          -0.53438097239 0.63442224264 0.55852079391 -0.89207208157 0.42741948366 -0.1466973871
          -0.6615203619 0.6060577631 0.44168409705 -0.91706120968 0.32984355092 -0.22405807674
          -0.70553660393 0.58516359329 0.39975211024 -0.91988050938 0.25015902519 -0.30206033587
          -0.92262172699 0.3202174902 -0.21501146257 -0.65895414352 0.6086025238 0.44202086329
          0.20894381404 0.69401073456 0.68897861242 0.086888223886 0.7116138339 0.69717729092
          0.15629072487 0.63055419922 0.76024645567 -0.0089980959892 0.66533279419 0.74649274349
          0.084470190108 0.55327886343 0.82870215178 0.085038661957 0.51439893246 0.85332417488
          0.011782838963 0.53921216726 0.84208756685 -0.01766570285 0.53079628944 0.84731537104
          -0.12225227058 0.53071290255 0.83868843317 -0.086371555924 0.44696784019 0.89037060738
          -0.080954156816 0.41969633102 0.90404725075 -0.068029366434 0.40311324596 0.91261810064
          -0.073737584054 0.39553812146 0.91548478603 -0.045809790492 0.34472110868 0.93758672476
          -0.13408273458 0.3337918222 0.93306213617 -0.19546818733 0.32347950339 0.92582571507
          -0.010877515189 0.32519713044 0.94558370113 -0.022811323404 0.46019583941 0.88752436638
          -0.022035833448 0.51224672794 0.85855561495 -0.066875644028 0.54161721468 0.83796089888
          -0.019522313029 0.52182495594 0.85282921791 -0.021071586758 0.51983302832 0.85400789976
          -0.022273788229 0.51684546471 0.85578894615 0.023407544941 0.49682965875 0.86753243208
          -0.019366400316 0.52433538437 0.85129159689 0.79811620712 0.5495800972 0.24692562222
          0.92697203159 -0.13510529697 0.34995654225 0.92615371943 -0.13868060708 0.35072353482
          0.42596173286 0.09661013633 0.89956825972 0.90563678741 -0.13058914244 0.40344581008
          0.37548065186 0.12677894533 0.91811847687 0.40710660815 0.12847027183 0.90430063009
          0.92588859797 -0.15843321383 0.34297126532 0.94871842861 -0.17119917274 0.2657521069
          0.48910069466 0.12465457618 0.86327385902 -0.19591602683 0.33701661229 0.92088913918
          0.93049174547 -0.12519852817 0.34425351024 0.4578460753 0.15436497331 0.87552756071
          0.93198788166 -0.11936786026 0.34227180481 0.45857778192 0.15709488094 0.87465858459
          -0.27321898937 0.37698101997 0.88500660658 -0.27533757687 0.37113496661 0.88681906462
          0.92963606119 -0.12923943996 0.34507095814 0.45361715555 0.13886989653 0.88031053543
          0.91795325279 -0.17288389802 0.35703349113 0.44457268715 0.10705439746 0.8893225193
          -0.28923249245 0.32428130507 0.9006587863 -0.27623185515 0.36738172174 0.88810288906
          0.43668472767 0.080603569746 0.89599639177 0.90730935335 -0.20708726346 0.365929842
          0.90537780523 -0.21287049353 0.36739248037 0.43315386772 0.069110319018 0.89866650105
          -0.30068212748 0.28383228183 0.91051059961 -0.29905354977 0.28974080086 0.90918493271
          0.43500080705 0.075096897781 0.89729303122 0.90951496363 -0.20033717155 0.36420828104
          0.91795253754 -0.17288655043 0.35703414679 0.44457283616 0.10705585033 0.88932228088
          -0.28923168778 0.32428637147 0.90065723658 -0.29714220762 0.29661336541 0.90759414434
          0.92658376694 -0.14143359661 0.34848126769 0.87035924196 -0.26486247778 -0.41511768103
          0.86282426119 -0.29206040502 -0.41259554029 0.265884161 -0.29284313321 -0.91844904423
          0.8539019227 -0.31775671244 -0.41216772795 0.83533322811 -0.3368422091 -0.43446040154
          0.13865017891 -0.27508795261 -0.95136886835 0.37994071841 -0.30818814039 -0.87216120958
          0.86318153143 -0.31650915742 -0.39336955547 0.3024353385 -0.27645033598 -0.91219961643
          0.86635935307 -0.30359777808 -0.39654752612 0.30429789424 -0.27051720023 -0.91335821152
          0.86701840162 -0.30083885789 -0.39720904827 0.30160242319 -0.28047165275 -0.91124731302
          0.86241364479 -0.31946328282 -0.3926653266 0.28923213482 -0.32428127527 -0.90065890551
          0.85360896587 -0.35154923797 -0.38440206647 0.84555566311 -0.37781563401 -0.377214849
          0.27901607752 -0.358381778 -0.89090549946 0.27724251151 -0.36412733793 -0.88912761211
          0.84185057878 -0.38911426067 -0.37400239706 0.84379607439 -0.38323813677 -0.37568184733
          0.28106898069 -0.35166871548 -0.89293295145 0.2892306447 -0.32428586483 -0.90065771341
          0.85360753536 -0.35155400634 -0.38440096378 -0.39872640371 -0.089096978307 -0.91273158789
          -0.43013831973 -0.059455007315 -0.90080308914 -0.90090942383 0.22583171725 -0.37062400579
          -0.42927119136 -0.056701593101 -0.90139406919 -0.90426588058 0.21614919603 -0.36821550131
          -0.43500569463 -0.075112871826 -0.89728933573 -0.91795349121 0.1728836894 -0.35703316331
          -0.44457271695 -0.10705426335 -0.8893225193 -0.45210179687 -0.13341905177 -0.88193160295
          -0.92734664679 0.13844613731 -0.34765058756 -0.92881715298 0.13257580996 -0.34600916505
          -0.45525455475 -0.1448212713 -0.87850451469 -0.45362129807 -0.13888636231 -0.88030582666
          -0.92558687925 0.14528132975 -0.34954589605 -0.44457253814 -0.10705587268 -0.8893224597
          -0.83771240711 0.4012323916 0.37047350407 -0.84380215406 0.38321992755 0.37568661571
          -0.85360878706 0.35154888034 0.38440278172 -0.86097347736 0.32500040531 0.39127916098
          -0.86395198107 0.31340360641 0.39416387677 -0.86241728067 0.31944915652 0.39266866446
          -0.85360789299 0.35155415535 0.3843998611 0.3805026412 0.8738168478 -0.30275714397
          0.43713563681 -0.85525131226 -0.27831205726 0.84357619286 -0.47171151638 0.25664663315
          0.75168895721 0.17895491421 0.63477474451 -0.73135775328 -0.22436267138 -0.6440320611
          -0.1964764446 -0.73783415556 -0.64575362206 -0.41293662786 0.8597638607 0.30048206449
          -0.85328567028 0.44338682294 -0.27442988753 0.26587697864 0.70908862352 0.65307182074
          0.91424649954 0.27854058146 0.29422518611 0.37121158838 0.42748036981 0.82429516315
          0.42424234748 0.074859499931 0.90244925022 -0.32717365026 0.24120391905 0.91366189718
          -0.32741478086 0.29997366667 0.89599967003 -0.32471942902 0.27467602491 0.90504717827
          -0.43628078699 0.34627386928 0.83051401377 0.10463218391 0.67526787519 -0.7301132679
          0.67786419392 0.53996139765 -0.49894082546 0.85784012079 -0.2723030448 -0.43584570289
          0.29307901859 -0.23695260286 -0.92626029253 0.28069061041 -0.26939243078 -0.92121684551
          -0.46344190836 -0.097873993218 -0.88070559502 -0.53417766094 -0.059537440538 -0.84327310324
          -0.90307825804 0.22000989318 -0.36884322762 -0.84420013428 0.38187411427 0.37616255879
          -0.83866673708 0.39848226309 0.37128144503 0.59821099043 0.68553423882 0.41495344043
          0.55742239952 0.80689817667 -0.19543708861 0.65184473991 0.75833028555 0.0058022323065
          0.33613827825 0.8751553297 -0.34801474214
        </DataArray>
        <DataArray type="Float32" Name="RTNeuron Opacity" format="ascii" RangeMin="0.077146999538" RangeMax="0.32211884856">
          0.077147006989 0.077146999538 0.077147006989 0.077147006989 0.077147006989 0.077147006989
          0.077146999538 0.077147006989 0.077147006989 0.077147006989 0.077147006989 0.077147006989
          0.077146999538 0.077147006989 0.077146999538 0.077146999538 0.077146999538 0.077147006989
          0.077146999538 0.077147014439 0.077147006989 0.077147006989 0.077147006989 0.077146999538
          0.077147014439 0.077147006989 0.077147006989 0.077147006989 0.077147006989 0.077147014439
          0.077147014439 0.077147006989 0.077147006989 0.077147006989 0.077147006989 0.077147006989
          0.077147006989 0.077147006989 0.077147006989 0.077147006989 0.077147006989 0.077147006989
          0.088157601655 0.088261298835 0.099117934704 0.099164299667 0.099193893373 0.088159896433
          0.10949997604 0.10977314413 0.1177161634 0.11788092554 0.1179478541 0.10988406092
          0.10955572873 0.10946558416 0.099141702056 0.099151551723 0.099150851369 0.10959239304
          0.088398300111 0.088341295719 0.078215450048 0.078091353178 0.077997945249 0.088298358023
          0.082794241607 0.082840643823 0.088366143405 0.088360212743 0.088358901441 0.082759313285
          0.093820460141 0.093792021275 0.077147006989 0.077146999538 0.077147006989 0.077147006989
          0.077147006989 0.077147006989 0.077146999538 0.077146999538 0.077147006989 0.077147006989
          0.077147006989 0.077147006989 0.077147006989 0.077147006989 0.077147006989 0.077147006989
          0.077147006989 0.077147006989 0.077147006989 0.077147006989 0.077147006989 0.077147014439
          0.077147006989 0.077147006989 0.077147006989 0.077147014439 0.077147006989 0.077147014439
          0.08843716979 0.0885790959 0.099067121744 0.099079892039 0.10919237882 0.10901275277
          0.11742255092 0.11753076315 0.10936418921 0.1093050316 0.099110022187 0.099124319851
          0.088440589607 0.08843614161 0.078307516873 0.078297719359 0.082871377468 0.082875043154
          0.088380128145 0.088374331594 0.093773387372 0.093792527914 0.077147006989 0.077147006989
          0.077147006989 0.077147006989 0.077147006989 0.077147006989 0.077147006989 0.077147006989
          0.077146999538 0.077147006989 0.077147006989 0.077147006989 0.077147006989 0.077147006989
          0.077147006989 0.077147006989 0.077147006989 0.077147006989 0.077147006989 0.077146999538
          0.077147006989 0.077147006989 0.077147014439 0.077147006989 0.077147006989 0.077147006989
          0.077147006989 0.077147006989 0.088581435382 0.088477812707 0.099143050611 0.099096670747
          0.10912393034 0.10939756781 0.117654562 0.11748963594 0.10943192989 0.10934171826
          0.099119134247 0.099109262228 0.088397696614 0.088340684772 0.078090064228 0.078214123845
          0.082793742418 0.082840144634 0.08837287128 0.088378831744 0.09382096678 0.093842186034
          0.077147006989 0.077147006989 0.077147006989 0.077147006989 0.077147006989 0.077147006989
          0.077146999538 0.077147006989 0.077147006989 0.077147006989 0.077147006989 0.077147006989
          0.077147006989 0.077147006989 0.088301971555 0.099181070924 0.10970490426 0.11783986539
          0.10953330994 0.099136523902 0.088302865624 0.078007727861 0.082762956619 0.088364690542
          0.09383957088 0.32211884856 0.099130436778 0.099130444229 0.099130436778 0.099130436778
          0.099130436778 0.099130436778 0.099130436778 0.098620682955 0.098633088171 0.098644763231
          0.093806505203 0.093806482852 0.088369525969 0.088369525969 0.088369518518 0.093806445599
          0.082817181945 0.082817181945 0.077499635518 0.077499635518 0.077499635518 0.082817181945
          0.082817159593 0.082817159593 0.088369496167 0.088369488716 0.088369488716 0.082817159593
          0.093806453049 0.093806453049 0.098895013332 0.098894998431 0.098894998431 0.093806445599
          0.0938064605 0.099130436778 0.099130436778 0.099130436778 0.099130436778 0.099130436778
          0.099130436778 0.098618455231 0.098615542054 0.093806497753 0.093806497753 0.088369525969
          0.088369525969 0.082817167044 0.082817174494 0.077499657869 0.077499650419 0.082817174494
          0.082817181945 0.088369503617 0.088369503617 0.093806453049 0.09380646795 0.098895028234
          0.098895020783 0.09863012284 0.0938064605 0.088369503617 0.088369503617 0.082817174494
          0.082817174494 0.07749966532 0.077499650419 0.082817174494 0.082817174494 0.088369503617
          0.088369503617 0.0938064605 0.093806453049 0.098895028234 0.088369503617 0.082817181945
          0.077499635518 0.082817159593 0.088369496167 0.093806438148 0.098894998431 0.32211884856
          0.077147006989 0.077146999538 0.077147006989 0.077147006989 0.077147006989 0.077147006989
          0.077147006989 0.077147006989 0.19238218665 0.32211884856 0.099130436778 0.15442711115
          0.099130436778 0.099130421877 0.099130436778 0.11850066483 0.11851175129 0.099130436778
          0.099130436778 0.099130436778 0.099130436778 0.099130436778 0.093806445599 0.098647661507
          0.093806445599 0.32211884856 0.32211884856 0.32211884856 0.32211884856
        </DataArray>
        <DataArray type="Float32" Name="Voltage" format="ascii" RangeMin="-65" RangeMax="-65">
          -65 -65 -65 -65 -65 -65
          -65 -65 -65 -65 -65 -65
          -65 -65 -65 -65 -65 -65
          -65 -65 -65 -65 -65 -65
          -65 -65 -65 -65 -65 -65
          -65 -65 -65 -65 -65 -65
          -65 -65 -65 -65 -65 -65
          -65 -65 -65 -65 -65 -65
          -65 -65 -65 -65 -65 -65
          -65 -65 -65 -65 -65 -65
          -65 -65 -65 -65 -65 -65
          -65 -65 -65 -65 -65 -65
          -65 -65 -65 -65 -65 -65
          -65 -65 -65 -65 -65 -65
          -65 -65 -65 -65 -65 -65
          -65 -65 -65 -65 -65 -65
          -65 -65 -65 -65 -65 -65
          -65 -65 -65 -65 -65 -65
          -65 -65 -65 -65 -65 -65
          -65 -65 -65 -65 -65 -65
          -65 -65 -65 -65 -65 -65
          -65 -65 -65 -65 -65 -65
          -65 -65 -65 -65 -65 -65
          -65 -65 -65 -65 -65 -65
          -65 -65 -65 -65 -65 -65
          -65 -65 -65 -65 -65 -65
          -65 -65 -65 -65 -65 -65
          -65 -65 -65 -65 -65 -65
          -65 -65 -65 -65 -65 -65
          -65 -65 -65 -65 -65 -65
          -65 -65 -65 -65 -65 -65
          -65 -65 -65 -65 -65 -65
          -65 -65 -65 -65 -65 -65
          -65 -65 -65 -65 -65 -65
          -65 -65 -65 -65 -65 -65
          -65 -65 -65 -65 -65 -65
          -65 -65 -65 -65 -65 -65
          -65 -65 -65 -65 -65 -65
          -65 -65 -65 -65 -65 -65
          -65 -65 -65 -65 -65 -65
          -65 -65 -65 -65 -65 -65
          -65 -65 -65 -65 -65 -65
          -65 -65 -65 -65 -65 -65
          -65 -65 -65 -65 -65 -65
          -65 -65 -65 -65 -65 -65
          -65 -65 -65 -65 -65 -65
          -65 -65 -65 -65 -65 -65
          -65 -65 -65 -65 -65 -65
          -65 -65 -65 -65 -65 -65
          -65 -65 -65 -65 -65 -65
          -65 -65 -65 -65 -65 -65
          -65 -65 -65 -65 -65
        </DataArray>
      </PointData>
      <CellData>
      </CellData>
      <Points>
        <DataArray type="Float32" Name="Points" NumberOfComponents="3" format="ascii" RangeMin="990.98907587" RangeMax="1013.4680135">
          192.64836121 954.91522217 196.90231323 192.51277161 954.74786377 196.66816711
          193.19581604 955.48291016 195.79855347 193.32293701 955.64111328 196.04347229
          193.28074646 955.89331055 196.2328186 192.61378479 955.17553711 197.08195496
          194.02037048 956.40435791 195.22679138 193.90245056 956.25622559 194.9712677
          194.62501526 957.06072998 194.20860291 194.73374939 957.1986084 194.47386169
          194.67555237 957.4331665 194.68089294 193.97019958 956.64782715 195.42538452
          195.35588074 957.88934326 193.53285217 195.4561615 958.0177002 193.80621338
          196.16847229 958.84216309 192.84893799 196.26119995 958.96179199 193.12895203
          196.18815613 959.17932129 193.34957886 195.39022827 958.24346924 194.02061462
          197.22247314 960.13098145 192.34710693 197.13623047 960.01916504 192.0617981
          198.03591919 961.12939453 191.35835266 198.11564636 961.23321533 191.64846802
          198.0305481 961.43609619 191.87857056 197.14326477 960.34112549 192.57279968
          198.71638489 961.97631836 191.22079468 198.64434814 961.88201904 190.92555237
          199.28123474 962.66955566 190.56500244 199.34603882 962.75494385 190.86474609
          199.24865723 962.94262695 191.1027832 198.62496948 962.17138672 191.45515442
          200.2663269 963.88476562 190.07824707 200.32591248 963.96368408 190.38096619
          201.26379395 965.12701416 189.60061646 201.32080078 965.20288086 189.90464783
          201.2151947 965.38037109 190.14709473 200.22369385 964.14544678 190.62167358
          201.93774414 965.99572754 189.26742554 201.99554443 966.07281494 189.5710144
          202.38807678 966.5803833 189.027771 202.45094299 966.66436768 189.34268188
          202.33843994 966.84625244 189.59658813 201.88824463 966.24816895 189.8143158
          202.78782654 967.06848145 189.18225098 202.71461487 966.97027588 188.83073425
          202.97898865 967.26251221 188.65515137 203.06604004 967.37988281 189.05522156
          202.921875 967.61364746 189.3808136 202.66137695 967.27203369 189.46711731
          203.24278259 967.55389404 188.47987366 203.34545898 967.69348145 188.92709351
          203.57446289 968.04516602 188.21888733 203.68759155 968.20025635 188.68759155
          203.51979065 968.48413086 189.07208252 203.18475342 967.95935059 189.29257202
          204.15393066 969.09118652 188.22644043 204.04243469 968.93695068 187.78620911
          204.57794189 970.02783203 187.26829529 204.68115234 970.17211914 187.65548706
          204.5435791 970.41699219 187.97572327 203.99681091 969.36303711 188.58908081
          205.11218262 971.11651611 186.75157166 205.20588684 971.24884033 187.08656311
          205.60649109 972.08984375 186.25497437 205.69523621 972.21661377 186.55613708
          205.59054565 972.41973877 186.80604553 205.08790588 971.46685791 187.36424255
          206.11631775 972.97064209 186.10066223 206.02220154 972.83477783 185.79748535
          206.39837646 973.46502686 185.3598175 206.50265503 973.61663818 185.68336487
          206.39285278 973.84954834 185.95217896 206.01226807 973.18273926 186.35255432
          206.77201843 974.51373291 185.55334473 206.88777161 974.26043701 185.26748657
          192.0022583 955.02697754 196.50465393 192.24067688 954.81616211 196.5174408
          192.68789673 955.76477051 195.63189697 192.92770386 955.55541992 195.64285278
          193.63903809 956.33392334 194.81018066 193.39820862 956.54211426 194.80046082
          194.12431335 957.3505249 194.03395081 194.36624146 957.14355469 194.04255676
          194.85731506 958.18157959 193.35595703 195.10087585 957.97644043 193.3631134
          195.67118835 959.13586426 192.6708374 195.91654968 958.93280029 192.67645264
          196.8868866 960.11291504 191.88719177 196.63990784 960.31402588 191.88291931
          197.54148865 961.42657471 191.17825317 197.78959656 961.22686768 191.18159485
          198.40237427 961.98486328 190.74595642 198.15394592 962.1842041 190.7428894
          198.79466248 962.97650146 190.37986755 199.04336548 962.77752686 190.38279724
          199.7809906 964.19317627 189.89225769 200.03076172 963.99554443 189.89468384
          200.77592468 965.43200684 189.4158783 201.0279541 965.23730469 189.41717529
          201.44247437 966.29064941 189.08659363 201.69836426 966.10113525 189.08586121
          201.86195374 966.87390137 188.84477234 202.13328552 966.68280029 188.84146118
          202.42402649 967.078125 188.62471008 202.11567688 967.28649902 188.6308136
          202.28533936 967.61175537 188.4317627 202.64167786 967.37860107 188.42251587
          202.8573761 967.67584229 188.22181702 202.45263672 967.93292236 188.23466492
          202.73167419 968.4317627 187.96629333 203.16217041 968.1652832 187.95039368
          203.64710999 969.0423584 187.53604126 203.23657227 969.28985596 187.5534668
          203.8556366 970.32958984 187.06748962 204.22251892 970.1138916 187.04998779
          204.47714233 971.37347412 186.57963562 204.79870605 971.18658447 186.56349182
          205.02615356 972.31890869 186.10124207 205.31898499 972.14941406 186.08627319
          205.72657776 972.89111328 185.62805176 205.42765808 973.06341553 185.64363098
          205.75613403 973.70880127 185.19563293 206.07818604 973.52282715 185.17900085
          206.43041992 974.15576172 184.72930908 206.08599854 974.35668945 184.74610901
          192.10327148 955.45458984 196.91845703 191.96768188 955.28729248 196.68431091
          192.77281189 956.17523193 196.06616211 192.64570618 956.01696777 195.82124329