<VTKFile type="PolyData" version="1.0" byte_order="LittleEndian" header_type="UInt64">
  <PolyData>
    <Piece NumberOfPoints="300" NumberOfVerts="0" NumberOfLines="0" NumberOfStrips="0" NumberOfPolys="504">
      <PointData Normals="Normal">
        <DataArray type="Int32" Name="Section Id" format="ascii" RangeMin="0" RangeMax="82">
          47 47 47 47 47 47
          47 47 47 47 47 47
          47 48 48 48 55 55
          47 55 55 55 55 55
          55 55 55 55 55 55
          55 47 47 47 47 47
          47 47 47 47 47 47
          48 55 48 55 55 55
          55 55 55 55 47 47
          47 47 47 47 47 47
          47 47 47 47 55 55
          48 55 55 55 55 55
          55 55 55 47 47 47
          47 47 55 55 55 55
          55 59 59 59 59 59
          59 59 59 68 0 68
          68 68 68 68 0 68
          68 69 69 69 69 69
          82 82 69 69 82 82
          82 68 68 68 68 69
          68 68 69 69 69 82
          69 82 82 0 68 68
          68 69 69 69 69 69
          69 69 69 82 69 69
          82 82 82 82 82 0
          68 68 69 69 69 69
          69 69 69 82 82 82
          0 0 48 48 48 48
          48 48 48 49 52 52
          52 49 52 52 52 52
          52 52 48 48 48 48
          48 48 52 52 52 52
          52 52 48 48 48 48
          48 49 52 52 52 52
          52 52 48 48 52 52
          52 49 49 49 49 49
          49 49 49 49 49 49
          49 49 49 49 49 49
          49 49 49 49 49 49
          49 49 49 49 49 49
          49 49 49 49 49 49
          49 49 49 49 49 49
          49 49 49 49 49 49
          49 49 49 49 49 49
          65 65 69 69 69 69
          69 69 69 69 69 69
          69 69 69 69 69 69
          82 82 82 82 82 82
          82 82 82 82 82 82
          82 82 82 0 0 0
        </DataArray>
        <DataArray type="Float32" Name="Normal" NumberOfComponents="3" format="ascii" RangeMin="0.99999993501" RangeMax="1.0000000956">
          0.0077965739183 -0.008888669312 0.99993014336 -0.39319565892 -0.59039229155 0.70486468077
          -0.010155944154 0.00264493539 0.99994492531 -0.01579667069 0.079314477742 0.99672448635
          -0.44004544616 -0.55802977085 0.70353597403 -0.59554195404 -0.80077934265 -0.063893564045
          -0.55831307173 -0.82962477207 -0.0030201850459 -0.17056156695 -0.27320444584 0.94671446085
          -0.4795947969 -0.56769949198 0.66910845041 -0.17600291967 -0.84176790714 0.51034283638
          -0.48040723801 -0.64922595024 0.58967328072 -0.62549936771 -0.77272212505 0.10794071853
          -0.62521463633 -0.77796500921 0.062266401947 -0.58310997486 -0.72787725925 0.36080116034
          -0.49515101314 -0.85135179758 0.17327907681 -0.75347369909 -0.58135008812 0.30709847808
          -0.62413674593 -0.60850244761 0.49007970095 -0.61529308558 -0.78620809317 0.057369232178
          -0.61484289169 -0.77133405209 0.16435357928 -0.50171983242 -0.21299433708 0.83839762211
          -0.55103462934 -0.4761428833 0.68530935049 -0.16928787529 0.11454567313 0.97888761759
          -0.57103842497 -0.5333147049 0.62409186363 -0.58724194765 -0.80711263418 -0.06096028164
          -0.60548299551 -0.79583179951 -0.0064949360676 -0.52681660652 -0.49694085121 0.68957525492
          -0.13486738503 0.088493123651 0.98690414429 -0.10894612968 0.068641521037 0.99167490005
          -0.48830971122 -0.52399641275 0.69784063101 -0.5356105566 -0.84443175793 0.0075147012249
          -0.54686063528 -0.83164352179 -0.096501283348 0.54049474001 0.84134113789 0.0032639398705
          0.54049623013 0.84134018421 0.003262917744 0.3877017796 0.58863228559 0.7093654871
          0.37099632621 0.59913885593 0.70950293541 0.52242726088 0.85267668962 0.0035049144644
          0.48623260856 0.87382042408 0.0039707412943 0.34575811028 0.6604218483 0.66655409336
          0.46283850074 0.88420510292 -0.062942743301 0.40921938419 0.60761016607 0.68069773912
          0.57631599903 0.81365734339 -0.07630059123 0.77196407318 0.20747807622 0.60085308552
          0.53919959068 0.83644545078 -0.098096355796 0.58101892471 0.81310427189 0.03575738892
          -0.20022906363 0.81245982647 0.54755586386 0.20417094231 0.6544585824 0.72800981998
          0.63131964207 0.77118593454 -0.081901080906 0.35469120741 0.6799518466 0.64176291227
          0.33032941818 0.62642043829 0.70603120327 0.64874702692 0.76063853502 0.02358652465
          0.6727617979 0.7392244935 0.03064074181 0.3665125072 0.59630650282 0.71420389414
          -0.0077969036065 0.0088887996972 -0.99993014336 0.37667572498 0.6012031436 -0.7047483325
          0.35999169946 0.61177355051 -0.70437145233 -0.025763226673 0.020428862423 -0.99945932627
          -0.061068080366 0.043118223548 -0.99720185995 0.31071722507 0.64091354609 -0.70191502571
          -0.094258226454 0.064768366516 -0.9934387207 0.27286660671 0.62455457449 -0.73176193237
          -0.092467553914 0.064648061991 -0.99361479282 0.36554798484 0.76088237762 -0.53612756729
          0.067635171115 -0.043454475701 -0.99676334858 0.53441852331 0.74128443003 -0.40607181191
          0.17296375334 -0.1172009483 -0.97793018818 0.61343634129 0.62596738338 -0.48151922226
          0.4710200429 0.86028581858 -0.19506031275 0.5559450388 0.47746536136 -0.68040573597
          0.17964571714 -0.12267816067 -0.97605198622 0.1902218312 -0.13091702759 -0.97297298908
          0.53490161896 0.4152020812 -0.73585832119 0.58238106966 0.45442372561 -0.674041152
          0.22111424804 -0.15465594828 -0.96290707588 0.24609574676 -0.17385435104 -0.95352584124
          0.61767375469 0.42475888133 -0.66186028719 -0.40425404906 -0.57788264751 -0.70896422863
          -0.42637622356 -0.51154863834 -0.74600362778 -0.48475572467 -0.55716264248 -0.67422670126
          -0.49131900072 -0.57691144943 -0.65251737833 -0.42004725337 -0.66076600552 -0.62205201387
          -0.33172518015 -0.66616517305 -0.66796886921 -0.30347362161 -0.64998668432 -0.69672173262
          -0.27441418171 -0.63727110624 -0.72012668848 -0.22686356306 -0.6295222044 -0.74312502146
          -0.2371481061 -0.69554227591 -0.6782194972 0.126040712 0.66535806656 0.73580735922
          -0.48956009746 0.16874748468 0.8554853797 -0.668623209 -0.32262060046 0.6699693799
          0.3060580492 0.43778201938 0.84538477659 -0.36747375131 0.0048280879855 0.93002140522
          0.7336357832 0.38455989957 -0.56026089191 0.66690438986 0.73049759865 0.14700976014
          0.391533494 -0.11277521402 -0.91322690248 0.91424649954 0.27854058146 0.29422518611
          0.37121158838 0.42748036981 0.82429516315 0.30516716838 0.2613645792 0.91573005915
          0.98807501793 0.10429614037 0.11326985806 0.44629964232 0.18970192969 0.87454551458
          -0.15874351561 0.26203876734 0.95191180706 -0.15082040429 0.33078029752 0.93157804012
          -0.15351173282 0.4613506794 0.87383621931 0.45208078623 0.092783607543 0.88713824749
          0.96202927828 -0.021516488865 0.27209702134 0.91550010443 -0.12176029384 0.3834502697
          0.40536534786 0.040469810367 0.91325861216 -0.32436707616 0.17023853958 0.93048638105
          -0.18594868481 0.19216313958 0.96358525753 0.52563136816 0.027240224183 0.85027623177
          0.95427000523 -0.15223111212 0.25728297234 0.42424234748 0.074859499931 0.90244925022
          -0.32717365026 0.24120391905 0.91366189718 -0.24788856506 0.19788347185 0.94836360216
          -0.32741478086 0.29997366667 0.89599967003 -0.32471942902 0.27467602491 0.90504717827
          -0.43628078699 0.34627386928 0.83051401377 0.10463218391 0.67526787519 -0.7301132679
          0.27651122212 0.090784840286 -0.9567130208 0.67786419392 0.53996139765 -0.49894082546
          0.7702203393 0.11384046078 -0.62753564119 0.29612576962 -0.098094254732 -0.95009845495
          0.743737638 -0.038976024836 -0.66733443737 0.81958115101 -0.12276221812 -0.55965721607
          0.56531083584 -0.095841102302 -0.81929129362 0.96545213461 -0.013107541017 0.2602507174
          0.83859241009 -0.22593531013 -0.49569743872 0.85784012079 -0.2723030448 -0.43584570289
          0.44237482548 -0.27798512578 -0.85265988111 0.29307901859 -0.23695260286 -0.92626029253
          0.28069061041 -0.26939243078 -0.92121684551 -0.75306785107 0.65122240782 0.093798920512
          -0.86806708574 0.49632176757 0.011145623401 -0.44680222869 0.67790800333 -0.58378815651
          -0.38415271044 0.23501318693 -0.89285808802 -0.97897946835 0.19886809587 0.045284647495
          -0.3351328373 -0.060190059245 -0.94024634361 0.032025709748 0.19293160737 0.980689466
          -0.91731059551 0.39466693997 0.052719816566 0.40422073007 0.11224872619 0.90774768591
          -0.38496959209 -0.032191600651 -0.92236769199 -0.90045434237 0.118614465 -0.41846469045
          -0.3834875524 -0.092231929302 -0.91892910004 -0.45573744178 -0.089904427528 -0.88556230068
          -0.92696082592 0.14195798337 -0.34726306796 -0.92411398888 0.15294034779 -0.35017517209
          -0.46344190836 -0.097873993218 -0.88070559502 -0.53417766094 -0.059537440538 -0.84327310324
          -0.93972170353 0.20669876039 -0.27239450812 -0.87875533104 0.17268502712 -0.44493696094
          -0.90307825804 0.22000989318 -0.36884322762 -0.57707065344 0.51549035311 0.6334503293
          -0.57015830278 0.41078919172 0.71145749092 -0.64600372314 0.34170299768 0.68258208036
          -0.66362738609 0.22463493049 0.71353906393 -0.62818050385 0.24876900017 0.73722684383
          -0.66501057148 0.12080546468 0.73699867725 -0.77509528399 0.29719516635 0.55758625269
          -0.87950509787 0.26579678059 0.39474418759 -0.8752643466 0.2911708951 0.3861759901
          -0.87233322859 0.31352290511 0.37515097857 -0.88461798429 0.33576160669 0.32359740138
          -0.84420013428 0.38187411427 0.37616255879 -0.83866673708 0.39848226309 0.37128144503
          0.070486858487 0.92482876778 -0.37379601598 -0.24055321515 0.88367199898 -0.40156939626
          0.36313042045 -0.89382064342 0.26309892535 -0.10867889971 -0.97769844532 0.17970749736
          0.62997168303 -0.72945821285 0.266507864 -0.005625479389 -0.9758939743 0.21817292273
          -0.29422959685 -0.95518130064 0.032522894442 -0.69113218784 -0.72099721432 0.049993690103
          0.56273210049 -0.56218135357 0.60604029894 0.0030940070283 -0.80299830437 0.59597325325
          0.41171887517 -0.2329210639 0.88104224205 -0.17661695182 -0.62443161011 0.76084935665
          -0.53093630075 -0.67322909832 0.51465451717 -0.12322281301 -0.86797791719 0.48107224703
          0.35626196861 -0.17358827591 0.91812008619 -0.18141256273 -0.59270650148 0.78472197056
          0.34525623918 -0.16190852225 0.92443698645 -0.25814726949 -0.6180961132 0.74250733852
          -0.70538592339 -0.69948345423 0.11468973011 -0.64022094011 -0.71576106548 0.27893236279
          0.69588619471 0.71188217402 -0.094690151513 0.95157653093 -0.20674656332 0.22750379145
          0.75917232037 0.64007818699 -0.11814151704 0.99172097445 -0.043767336756 0.12072302401
          0.78354036808 0.62124896049 -0.010690072551 0.89326232672 0.064293265343 0.44491443038
          0.70585018396 0.70598846674 -0.057929880917 0.73759132624 0.31068515778 0.59952807426
          0.72835892439 0.37525761127 0.57330191135 0.68979841471 0.7140353322 -0.11971535534
          0.6885342598 0.70681929588 -0.16225647926 0.740475595 0.39249071479 0.54557031393
          -0.12870267034 0.97102874517 -0.2013425529 0.22484558821 0.94560301304 -0.23511572182
          -0.34084537625 0.80639749765 -0.4832675457 0.10943177342 0.95724403858 -0.26778465509
          0.19036793709 0.84969484806 -0.4917100966 -0.007581083104 0.81376183033 -0.58114916086
          -0.28791940212 0.44156333804 -0.84977895021 0.20623196661 0.64233112335 -0.7381592989
          -0.33130118251 0.20511941612 -0.92095905542 0.28762808442 0.64376622438 -0.70910871029
          -0.34533452988 0.16054096818 -0.92464625835 0.23609681427 0.60187220573 -0.76289451122
          -0.99956065416 0.0094288848341 0.028100062162 -0.91042858362 -0.054566059262 -0.41005185246
          -0.86515808105 -0.2431486696 -0.43861174583 -0.76389890909 -0.4120657444 -0.49664905667
          -0.73263931274 -0.37179216743 -0.57009667158 -0.39789095521 -0.60298842192 0.69143891335
          -0.0092878947034 -0.98280954361 0.18438884616 -0.26988711953 -0.75652986765 0.59567070007
          0.1509001106 -0.9880310297 -0.031999088824 0.51029914618 -0.59738236666 -0.61865103245
          0.18938392401 -0.80925291777 -0.55609673262 -0.19544698298 -0.87216824293 0.44846746325
          0.19231079519 -0.9671959281 -0.16597789526 -0.23461024463 -0.84291225672 0.48420757055
          0.17161761224 -0.97351306677 -0.15106227994 0.45283219218 -0.61193186045 -0.64844614267
          0.5051651001 -0.47565287352 -0.72011291981 0.16942547262 -0.97367960215 -0.1524567157
          -0.23621295393 -0.84298533201 0.48330038786 -0.25859540701 -0.81697243452 0.51544606686
          0.14267811179 -0.98334980011 -0.11254408956 0.47381693125 -0.53417181969 -0.70011287928
          0.49711510539 -0.44712719321 -0.74360871315 -0.15750847757 -0.91912508011 0.36110970378
          0.21662892401 -0.94431447983 -0.24767334759 0.46616470814 -0.5347096324 -0.70482349396
          -0.52196788788 0.85283601284 0.01484404318 -0.75153642893 0.015864567831 0.65950083733
          -0.43240141869 0.62500160933 0.64992469549 -0.5012767911 -0.074507527053 0.86207318306
          -0.50546896458 0.39827981591 0.76542431116 -0.47921565175 -0.31229665875 0.82025796175
          -0.46528613567 0.57440274954 0.67347633839 -0.5115531683 -0.16919241846 0.8424294591
          -0.50346302986 -0.21853625774 0.83592283726 -0.47580116987 0.53402423859 0.6988786459
          -0.48469185829 0.49382638931 0.72194826603 -0.5024317503 -0.21838609874 0.83658230305
          -0.49978384376 -0.21823140979 0.83820718527 0.28583753109 0.64147651196 -0.71190232038
          -0.025803452358 0.99395167828 -0.10674416274 0.31678584218 0.75490868092 -0.57424706221
          -0.13694283366 0.98757648468 0.077067688107 0.26273089647 0.80731457472 -0.52840870619
          -0.18907599151 0.96696847677 0.17094507813 0.2112185508 0.86791229248 -0.44957211614
          -0.17161540687 0.973513484 0.1510617286 -0.19311144948 0.96226716042 0.1917026937
          0.18807630241 0.89174121618 -0.41161262989 0.28196337819 0.78689801693 -0.54889732599
          -0.15009698272 0.98078119755 0.12465590984 0.30534601212 0.040611688048 -0.95137512684
          0.56652551889 0.12542627752 -0.8144428134 0.51706302166 0.17720019817 -0.83740437031
          0.50849294662 0.18724647164 -0.84046047926 0.49473387003 0.26476553082 -0.82773041725
          0.50242686272 0.21839049459 -0.83658409119 0.49516165257 0.21784515679 -0.84104609489
          -0.44625273347 -0.72451120615 0.52530181408 -0.071315206587 -0.98112797737 -0.17972780764
          0.74880057573 0.077677585185 0.65822792053 0.3115504384 0.084765806794 0.94644129276
          0.77514380217 0.016444325447 0.63157081604 0.34212732315 0.075238473713 0.93663662672
          -0.27715790272 0.056421689689 0.95916634798 -0.09256862849 0.086851209402 0.99191129208
          0.13967232406 -0.12583087385 -0.98217022419 0.88365906477 -0.024123854935 -0.4675090313
          0.16103237867 -0.16681443155 -0.97274947166 0.93114256859 -0.068188995123 -0.35822311044
          -0.86454021931 -0.089926294982 -0.49445283413 -0.37483841181 -0.12879824638 -0.91809976101
          -0.9146617651 -0.10071078688 -0.39147305489 -0.38813823462 -0.14176721871 -0.91063207388
          -0.87746423483 0.0090949675068 0.47955590487 -0.90637010336 -0.010404207744 0.42235654593
          0.92697203159 -0.13510529697 0.34995654225 0.92615371943 -0.13868060708 0.35072353482
          0.42596173286 0.09661013633 0.89956825972 0.37548065186 0.12677894533 0.91811847687
          0.40710660815 0.12847027183 0.90430063009 -0.27321898937 0.37698101997 0.88500660658
          -0.27533757687 0.37113496661 0.88681906462 0.87035924196 -0.26486247778 -0.41511768103
          0.86282426119 -0.29206040502 -0.41259554029 0.265884161 -0.29284313321 -0.91844904423
          0.8539019227 -0.31775671244 -0.41216772795 -0.39872640371 -0.089096978307 -0.91273158789
          -0.43013831973 -0.059455007315 -0.90080308914 -0.90090942383 0.22583171725 -0.37062400579
          -0.83771240711 0.4012323916 0.37047350407 0.18345488608 0.6489136219 0.73841416836
          0.65184473991 0.75833028555 0.0058022323065 0.3805026412 0.8738168478 -0.30275714397
        </DataArray>
        <DataArray type="Float32" Name="RTNeuron Opacity" format="ascii" RangeMin="0.053237203509" RangeMax="0.32211884856">
          0.1193426773 0.1193426773 0.1193426773 0.12011067569 0.12010975182 0.1201044172
          0.1193426773 0.12788912654 0.12788550556 0.13528108597 0.13441054523 0.13436542451
          0.12786486745 0.099130436778 0.099130436778 0.099130436778 0.053237203509 0.053237203509
          0.13728927076 0.053237203509 0.053237203509 0.053237203509 0.053237203509 0.053237203509
          0.053237203509 0.05940432474 0.059404287487 0.065443180501 0.065443195403 0.065443195403
          0.059404287487 0.11934268475 0.1193426773 0.1193426773 0.1193426773 0.1193426773
          0.12009742856 0.12010509521 0.12783807516 0.12786763906 0.13528878987 0.13452264667
          0.099130436778 0.053237203509 0.099130436778 0.053237203509 0.053237203509 0.053237203509
          0.059404246509 0.05940419063 0.065443068743 0.065443135798 0.1193426773 0.1193426773
          0.1193426773 0.1193426773 0.12009116262 0.12009209394 0.12781381607 0.12781742215
          0.13425381482 0.13426174223 0.13712640107 0.13714034855 0.053237203509 0.053237203509
          0.099130436778 0.053237203509 0.053237203509 0.053237203509 0.053237203509 0.059404209256
          0.059404231608 0.065443113446 0.065443068743 0.1193426773 0.12009675801 0.12783528864
          0.13430078328 0.1372088939 0.053237203509 0.053237203509 0.053237203509 0.059404283762
          0.065443173051 0.1457144767 0.14547479153 0.14307112992 0.13931134343 0.13887703419
          0.14479406178 0.145385921 0.14424519241 0.19238218665 0.32211884856 0.19265350699
          0.18697524071 0.18702581525 0.18707995117 0.11551351845 0.32211884856 0.18417498469
          0.18419715762 0.15442711115 0.15442711115 0.15442711115 0.15442711115 0.15442711115
          0.099130436778 0.099130436778 0.15442711115 0.15442711115 0.099130436778 0.099130421877
          0.099130436778 0.11850066483 0.19198384881 0.11851175129 0.19204030931 0.15442711115
          0.18690560758 0.18427313864 0.15442711115 0.15442711115 0.15442711115 0.099130436778
          0.15442711115 0.099130436778 0.099130436778 0.32211884856 0.11571405083 0.11899643391
          0.19256824255 0.15442711115 0.15442711115 0.15442711115 0.15442711115 0.15442711115
          0.15442711115 0.15442711115 0.15442711115 0.099130436778 0.15442711115 0.15442711115
          0.099130436778 0.099130436778 0.099130436778 0.098642542958 0.093806445599 0.32211884856
          0.11571981013 0.18716025352 0.15442711115 0.15442712605 0.15442711115 0.15442711115
          0.15442711115 0.15442711115 0.15442712605 0.099130421877 0.098647661507 0.093806445599
          0.32211884856 0.32211884856 0.099130444229 0.099130436778 0.099130436778 0.099130436778
          0.099130436778 0.099130436778 0.099130436778 0.077147006989 0.077147006989 0.077147006989
          0.077147006989 0.077147006989 0.077147006989 0.077147006989 0.077147006989 0.077147006989
          0.077147006989 0.077147006989 0.099130436778 0.099130444229 0.099130436778 0.099130436778
          0.099130436778 0.099130436778 0.077147006989 0.077147006989 0.077147006989 0.077147006989
          0.077147006989 0.077147006989 0.099130436778 0.099130421877 0.099130436778 0.099130436778
          0.099130436778 0.077147006989 0.077146999538 0.077147006989 0.077147006989 0.077147006989
          0.077147006989 0.077147006989 0.099130436778 0.099130436778 0.077147014439 0.077147006989
          0.077147006989 0.077147006989 0.077146999538 0.077147006989 0.077146999538 0.077146999538
          0.077147006989 0.077147006989 0.077147006989 0.077147006989 0.077146999538 0.077147006989
          0.077147006989 0.077147006989 0.077146999538 0.077147006989 0.077147006989 0.077146999538
          0.077147006989 0.077147014439 0.077147006989 0.077147006989 0.077147006989 0.077147006989
          0.077147006989 0.077147006989 0.077147006989 0.077147006989 0.077147006989 0.077147006989
          0.077147006989 0.077147014439 0.077147014439 0.077147006989 0.077147006989 0.077147006989
          0.077147006989 0.077147006989 0.077147006989 0.077146999538 0.077147006989 0.077147006989
          0.077147006989 0.077147006989 0.077147006989 0.077147006989 0.077147006989 0.077147014439
          0.077147006989 0.077147006989 0.077147006989 0.077147006989 0.077147006989 0.077147006989
          0.099130436778 0.099130436778 0.15442711115 0.15442711115 0.15442711115 0.15442711115
          0.15442711115 0.15442711115 0.15442711115 0.15442711115 0.15442711115 0.15442711115
          0.15442711115 0.15442711115 0.15442711115 0.15442711115 0.15442711115 0.15442711115
          0.099130436778 0.099130444229 0.099130436778 0.099130436778 0.099130436778 0.088369518518
          0.093806445599 0.099130436778 0.099130436778 0.099130436778 0.099130436778 0.09863012284
          0.0938064605 0.088369503617 0.088369503617 0.32211884856 0.32211884856 0.32211884856
        </DataArray>
        <DataArray type="Float32" Name="Voltage" format="ascii" RangeMin="-65" RangeMax="-65">
          -65 -65 -65 -65 -65 -65
          -65 -65 -65 -65 -65 -65
          -65 -65 -65 -65 -65 -65
          -65 -65 -65 -65 -65 -65
          -65 -65 -65 -65 -65 -65
          -65 -65 -65 -65 -65 -65
          -65 -65 -65 -65 -65 -65
          -65 -65 -65 -65 -65 -65
          -65 -65 -65 -65 -65 -65
          -65 -65 -65 -65 -65 -65
          -65 -65 -65 -65 -65 -65
          -65 -65 -65 -65 -65 -65
          -65 -65 -65 -65 -65 -65
          -65 -65 -65 -65 -65 -65
          -65 -65 -65 -65 -65 -65
          -65 -65 -65 -65 -65 -65
          -65 -65 -65 -65 -65 -65
          -65 -65 -65 -65 -65 -65
          -65 -65 -65 -65 -65 -65
          -65 -65 -65 -65 -65 -65
          -65 -65 -65 -65 -65 -65
          -65 -65 -65 -65 -65 -65
          -65 -65 -65 -65 -65 -65
          -65 -65 -65 -65 -65 -65
          -65 -65 -65 -65 -65 -65
          -65 -65 -65 -65 -65 -65
          -65 -65 -65 -65 -65 -65
          -65 -65 -65 -65 -65 -65
          -65 -65 -65 -65 -65 -65
          -65 -65 -65 -65 -65 -65
          -65 -65 -65 -65 -65 -65
          -65 -65 -65 -65 -65 -65
          -65 -65 -65 -65 -65 -65
          -65 -65 -65 -65 -65 -65
          -65 -65 -65 -65 -65 -65
          -65 -65 -65 -65 -65 -65
          -65 -65 -65 -65 -65 -65
          -65 -65 -65 -65 -65 -65
          -65 -65 -65 -65 -65 -65
          -65 -65 -65 -65 -65 -65
          -65 -65 -65 -65 -65 -65
          -65 -65 -65 -65 -65 -65
          -65 -65 -65 -65 -65 -65
          -65 -65 -65 -65 -65 -65
          -65 -65 -65 -65 -65 -65
          -65 -65 -65 -65 -65 -65
          -65 -65 -65 -65 -65 -65
          -65 -65 -65 -65 -65 -65
          -65 -65 -65 -65 -65 -65
          -65 -65 -65 -65 -65 -65
        </DataArray>
      </PointData>
      <CellData Normals="Normal">
        <DataArray type="Int32" Name="Section Id" format="ascii" RangeMin="0" RangeMax="82">
          47 47 47 47 47 47
          47 47 47 47 47 47
          47 47 48 48 50 52
          50 47 47 53 55 55
          55 55 55 55 55 55
          55 55 55 55 55 55
          55 47 47 47 47 47
          47 47 47 47 47 47
          47 47 47 47 47 50
          53 55 55 55 55 50
          53 55 55 55 55 55
          55 55 55 47 47 47
          47 47 47 47 47 47
          47 47 47 47 47 47
          47 47 47 52 50 50
          48 47 47 55 55 55
          55 55 55 53 55 55
          55 55 55 55 55 55
          55 47 47 47 47 47
          47 47 47 47 47 47
          47 47 47 47 50 52
          52 50 47 47 55 55
          55 55 55 55 55 55
          55 55 55 55 55 55
          55 55 59 59 59 59
          45 68 68 68 68 23
          45 68 68 69 68 69
          69 68 68 69 73 78
          78 73 73 69 69 82
          82 78 82 68 68 68
          68 68 68 68 68 69
          69 69 69 68 68 68
          73 73 78 78 82 73
          78 82 45 68 68 69
          69 68 68 68 69 69
          69 69 73 73 69 69
          73 73 73 78 82 82
          78 78 78 78 82 82
          82 82 23 45 68 68
          68 68 23 45 68 69
          69 69 69 69 69 69
          69 69 69 69 69 69
          69 69 73 73 78 73
          69 69 69 69 78 78
          82 82 82 78 73 82
          82 82 82 82 0 45
          23 23 23 48 48 48
          48 48 48 48 48 48
          48 50 51 51 50 49
          48 52 52 52 52 52
          52 52 52 47 48 48
          48 48 48 48 47 48
          48 51 49 51 49 48
          48 52 52 52 52 52
          52 52 52 48 48 48
          48 48 48 48 48 48
          48 51 50 51 49 48
          48 52 52 52 52 52
          52 52 52 48 48 48
          48 48 48 48 48 52
          52 52 52 52 52 52
          52 50 49 49 49 49
          49 49 49 49 49 49
          49 49 49 49 49 49
          49 49 49 49 49 49
          49 49 49 49 49 51
          50 49 49 49 49 50
          51 49 49 49 49 49
          49 49 49 49 49 49
          49 49 49 49 49 49
          49 49 49 49 49 49
          49 49 50 49 49 49
          49 49 49 49 49 49
          49 49 49 49 49 49
          49 49 48 49 49 49
          49 49 49 48 49 49
          49 49 49 49 49 49
          49 49 49 49 49 49
          49 49 49 49 69 69
          69 69 69 69 69 69
          69 69 69 69 69 69
          69 69 69 69 69 69
          69 69 69 69 69 69
          69 69 69 69 69 69
        </DataArray>
        <DataArray type="Float32" Name="Normal" NumberOfComponents="3" format="ascii" RangeMin="0.33884203806" RangeMax="0.99825052001">
          -0.13185167313 -0.1988786757 0.90157991648 -0.13971608877 -0.16947762668 0.90051138401
          -0.28301259875 -0.35636919737 0.80170840025 -0.47626101971 -0.64973378181 0.4481690228
          -0.51568353176 -0.74026548862 0.21265031397 -0.20880122483 -0.25063991547 0.88232499361
          -0.3634006083 -0.46631124616 0.77311962843 -0.27565723658 -0.58806610107 0.68224352598
          -0.37685453892 -0.49670997262 0.73516541719 -0.52850043774 -0.66321587563 0.45557415485
          -0.57676959038 -0.70612889528 0.27977186441 -0.55360066891 -0.7122580409 0.23396959901
          -0.51495164633 -0.63456475735 0.47830361128 -0.41317337751 -0.73962372541 0.48693910241
          -0.41808795929 -0.80699896812 0.34814101458 -0.61057823896 -0.72019302845 0.28039291501
          -0.65357345343 -0.63924324512 0.38599312305 -0.6180909276 -0.72201484442 0.2372675091
          -0.60736322403 -0.70257127285 0.33841148019 -0.57358318567 -0.73109406233 0.28732252121
          -0.55945336819 -0.71614575386 0.37160933018 -0.62644344568 -0.4676156342 0.54519194365
          -0.55896371603 -0.432546556 0.67126220465 -0.40734744072 -0.19153051078 0.83419817686
          -0.4304536581 -0.29830396175 0.76276296377 -0.58792114258 -0.71208637953 0.1855455488
          -0.57585203648 -0.60176312923 0.4343020916 -0.59060359001 -0.68606090546 0.24539454281
          -0.59682148695 -0.62361782789 0.41091942787 -0.42238098383 -0.30523663759 0.76418489218
          -0.27699062228 -0.097967348993 0.8851223588 -0.24404107034 -0.12228725851 0.89213991165
          -0.38333123922 -0.31081470847 0.79144001007 -0.52359366417 -0.73335725069 0.20295135677
          -0.52066230774 -0.61752694845 0.43030485511 -0.55363970995 -0.71189898252 0.1773712337
          -0.56169897318 -0.6124560833 0.41756895185 0.43306478858 0.67637044191 0.47404378653
          0.47797328234 0.76438522339 0.23875692487 0.45988538861 0.77521198988 0.23899286985
          0.40099567175 0.71112704277 0.46000924706 0.23365259171 0.44629171491 0.79092717171
          0.11501456797 0.22703275084 0.90205746889 0.12287898362 0.19763170183 0.90312600136
          0.25549823046 0.39296081662 0.80626618862 0.43160974979 0.8061491251 0.20252735913
          0.40593865514 0.71741235256 0.42810302973 0.48279130459 0.76849085093 0.18048480153
          0.58583313227 0.54291522503 0.40175008774 0.14179986715 -0.30249810219 0.68597012758
          0.33687394857 0.18062792718 0.74275511503 0.074287049472 0.13790673018 0.87471222878
          0.24639360607 0.44911548495 0.78132545948 0.30666315556 0.82066982985 0.16173896194
          0.19498693943 0.76000756025 0.43710768223 0.52234327793 0.75474733114 0.19853973389
          0.37996035814 0.7158382535 0.4685100317 0.12985809147 0.48298537731 0.78288680315
          -0.1556122601 0.18533663452 0.84843170643 -0.48514086008 0.0060384669341 0.56435066462
          -0.16592597961 0.41797468066 0.70465445518 0.43878009915 0.69251942635 0.42196434736
          0.53679871559 0.71941494942 0.21590554714 0.56267380714 0.69872319698 0.25614371896
          0.4485296607 0.66112184525 0.48127385974 0.040899664164 0.25114706159 0.8975943327
          0.18732485175 0.43707334995 0.80237972736 0.008724719286 0.27648639679 0.89060765505
          0.1719109118 0.47363930941 0.77556055784 0.24295684695 0.40728849173 -0.8030166626
          0.10881052166 0.21369707584 -0.90125364065 0.091053463519 0.22510688007 -0.90034419298
          0.20321361721 0.43193510175 -0.80116277933 0.3856471777 0.70883584023 -0.46743857861
          0.45621719956 0.77942353487 -0.23229859769 0.47430506349 0.76859682798 -0.23253454268
          0.42572122812 0.68477231264 -0.46861895919 0.051796972752 0.24960003793 -0.89751851559
          0.16310852766 0.44341215491 -0.80903857946 0.028713608161 0.25132367015 -0.9062718153
          0.18198233843 0.48336166143 -0.75383478403 0.4682341516 0.81958162785 -0.22512362897
          0.36708435416 0.75654733181 -0.44361075759 0.41992944479 0.79964637756 -0.25362899899