<VTKFile type="PolyData" version="1.0" byte_order="LittleEndian" header_type="UInt64">
  <PolyData>
    <Piece NumberOfPoints="334" NumberOfVerts="0" NumberOfLines="0" NumberOfStrips="0" NumberOfPolys="613">
      <PointData Normals="Normal">
        <DataArray type="Int32" Name="Section Id" format="ascii" RangeMin="0" RangeMax="68">
          0 0 0 0 0 0
          0 47 47 47 0 47
          47 47 47 47 47 47
          47 47 47 47 47 47
          47 47 47 47 47 47
          47 47 47 47 47 47
          47 47 47 47 47 0
          0 0 47 47 47 47
          47 47 47 47 47 47
          47 47 47 0 47 47
          47 47 47 47 47 0
          0 0 58 58 58 58
          58 0 58 58 58 58
          58 58 58 58 58 58
          58 58 58 58 58 58
          58 58 58 58 58 58
          58 58 58 58 58 58
          58 58 58 58 58 58
          58 58 58 58 58 58
          58 58 58 58 58 0
          0 0 0 58 58 58
          58 58 58 58 58 58
          58 58 58 58 58 58
          58 58 58 58 58 58
          58 58 58 58 58 58
          58 58 58 58 58 0
          0 0 58 58 58 58
          58 58 58 58 58 58
          58 58 58 58 58 58
          58 58 58 58 58 58
          58 58 58 58 58 58
          58 58 58 58 58 0
          58 58 58 58 58 58
          58 58 58 58 58 58
          58 58 58 58 58 0
          59 0 59 59 59 59
          59 59 59 59 0 0
          0 59 59 59 59 59
          0 0 59 59 59 59
          59 59 59 59 59 59
          0 0 0 0 0 0
          0 0 0 0 0 0
          0 0 0 0 0 0
          0 0 0 0 0 0
          0 0 0 0 0 0
          0 0 0 0 0 0
          0 0 0 0 0 0
          0 1 1 1 1 0
          0 1 0 0 0 0
          0 0 0 0 0 47
          47 47 47 47 47 47
          47 0 47 59 59 59
          59 59 59 0 0 68
          0 0 0 0 0 0
          0 0 0 0 0 0
          0 0 65 65
        </DataArray>
        <DataArray type="Float32" Name="Normal" NumberOfComponents="3" format="ascii" RangeMin="0.99999993501" RangeMax="1.0000000951">
          -0.50194478035 -0.80841684341 -0.30743092299 -0.090342015028 -0.56736189127 -0.81849789619
          -0.35808643699 -0.92169219255 0.14918991923 -0.48060286045 0.78632712364 0.38821479678
          -0.36077359319 0.31501123309 0.87784415483 -0.17519471049 0.56856554747 0.80376619101
          0.68615746498 0.36935898662 0.62670719624 0.66491252184 0.10327282548 0.73974728584
          0.41203758121 -0.56970834732 0.71109592915 0.12118518353 -0.81491482258 0.56676983833
          0.46362811327 -0.59239715338 0.65887379646 -0.10408142209 -0.67431259155 0.73107427359
          0.34332108498 -0.094571843743 0.93444466591 0.0077896942385 -0.0088841775432 0.99993020296
          -0.37667870522 -0.6012005806 0.70474892855 -0.54049384594 -0.84134173393 -0.0032647443004
          -0.38177159429 -0.90155023336 0.20361149311 -0.37668007612 -0.60119986534 0.70474874973
          0.007791032549 -0.0088850911707 0.99993020296 0.0077947736718 -0.008887771517 0.99993014336
          -0.37667709589 -0.60120201111 0.70474863052 -0.54049658775 -0.84133994579 -0.0032650048379
          -0.54049682617 -0.84133976698 -0.0032647398766 -0.37667310238 -0.6012044549 0.70474869013
          0.0077992966399 -0.0088900597766 0.99993008375 -0.37667575479 -0.60120224953 0.70474904776
          -0.54049628973 -0.84134012461 -0.003263708204 -0.54049533606 -0.84134072065 -0.0032645044848
          0.069328293204 0.99001210928 -0.12275855988 -0.338365376 0.85665208101 -0.38943055272
          0.20078481734 0.88698971272 -0.41585415602 0.4423392117 0.88815510273 0.12456585467
          0.5396399498 0.84189218283 -0.002517262008 0.48760947585 0.5181760788 0.70265972614
          0.54049384594 0.84134173393 0.0032646262553 0.3876953125 0.58863675594 0.70936536789
          0.38769823313 0.58863472939 0.70936536789 0.54049688578 0.84133970737 0.0032645657193
          0.54049628973 0.841340065 0.0032639328856 0.38770061731 0.58863300085 0.7093654871
          0.38770294189 0.58863186836 0.70936524868 -0.39718514681 -0.69375032187 0.60079485178
          -0.70562136173 -0.65848171711 0.26172566414 -0.90052580833 -0.047681652009 0.43218031526
          -0.843316257 0.41195690632 -0.34512194991 -0.78183323145 0.03273916617 -0.62262737751
          -0.39661622047 0.62026017904 -0.67673701048 -0.21716716886 0.22285430133 -0.95035487413
          0.26571211219 0.66386443377 -0.69905728102 -0.0077897785231 0.0088839298114 -0.99993020296
          0.37667873502 0.60120034218 -0.70474916697 0.37668001652 0.60119974613 -0.70474898815
          -0.0077912579291 0.0088841458783 -0.99993020296 -0.0077952914871 0.0088872956112 -0.99993014336
          0.37667673826 0.60120201111 -0.70474874973 0.37667244673 0.60120487213 -0.70474857092
          -0.0077993818559 0.0088908681646 -0.99993008375 -0.01931107603 -0.83798760176 0.54534745216
          -0.58883816004 -0.80379849672 0.084720700979 -0.55683463812 -0.55521130562 -0.61779910326
          -0.38769492507 -0.5886361599 -0.70936596394 -0.38769820333 -0.58863472939 -0.70936542749
          -0.38770067692 -0.58863323927 -0.70936530828 -0.38770312071 -0.58863151073 -0.70936542749
          -0.38770234585 -0.58863282204 -0.70936477184 0.33893606067 0.17549060285 -0.92429721355
          0.26237165928 0.49210318923 -0.830057621 -0.26878669858 0.40901872516 -0.8720421195
          -0.077420093119 0.79168826342 -0.60599994659 0.23081474006 0.61198186874 -0.75644087791
          0.045377049595 0.79515224695 -0.60470968485 0.21438251436 0.75608199835 -0.61836898327
          -0.62181538343 0.73702317476 -0.26484438777 -0.99196881056 -0.03422595188 -0.12176434696
          0.67975515127 -0.68528115749 -0.26138603687 0.55037593842 0.017631305382 -0.83473080397
          0.54454272985 -0.83806061745 -0.033581826836 0.31017699838 -0.56220525503 -0.7666260004
          -0.11967679113 0.009991790168 -0.99276262522 0.33826830983 0.23079039156 -0.91231048107
          0.36130291224 -0.63539785147 -0.68244403601 0.50165873766 -0.8625908494 -0.065388187766
          0.37697684765 -0.90754163265 0.18508571386 0.36945286393 -0.70681589842 -0.60325443745
          0.14347703755 -0.14073957503 -0.97959518433 -0.025932950899 -0.054640233517 -0.99816930294
          0.27086007595 -0.96261763573 0.0014777525794 0.32393842936 -0.64376616478 -0.69327419996
          0.21291235089 -0.96065747738 -0.178341344 0.30419567227 -0.56047743559 -0.77027922869
          0.22141817212 0.17988787591 -0.95844376087 0.1784529388 0.058411307633 -0.98221313953
          0.24308247864 -0.73028546572 -0.63843101263 0.042007487267 -0.9985910058 0.03242539987
          -0.070105776191 -0.9973629117 -0.018774725497 0.2507326901 -0.66288203001 -0.70549315214
          0.40364199877 0.050757776946 -0.91350799799 0.31489828229 -0.0012518937001 -0.94912463427
          -0.08816472441 -0.99014735222 -0.10878995806 0.26503691077 -0.65557783842 -0.7070877552
          -0.10412252694 -0.98605138063 -0.12985102832 0.27823629975 -0.65191441774 -0.70540219545
          0.49570471048 0.063788086176 -0.8661454916 0.45945057273 0.059886321425 -0.88618218899
          -0.12976397574 -0.98388326168 -0.12302482128 0.28981614113 -0.66487556696 -0.68843817711
          -0.14096039534 -0.98259562254 -0.12097913772 0.30702671409 -0.67289233208 -0.67301607132
          0.57876771688 0.10628300905 -0.80853694677 0.53313267231 0.036184974015 -0.84525746107
          -0.13079856336 -0.98168945312 -0.13848337531 0.32641533017 -0.66618531942 -0.6705596447
          -0.12311136723 -0.98108023405 -0.14941602945 0.34110969305 -0.66225939989 -0.6671257019
          0.60771334171 0.042767569423 -0.79300409555 0.5930506587 0.046248439699 -0.80383580923
          -0.11762854457 -0.98058098555 -0.15692184865 0.37499138713 -0.62737452984 -0.68248277903
          0.62652695179 0.13261215389 -0.76803517342 0.58647924662 -0.17795175314 -0.79017412663
          0.32637855411 -0.79378098249 -0.51321429014 0.57047796249 -0.43771278858 -0.69495505095
          0.20106856525 -0.9696097374 -0.13938599825 -0.021051531658 -0.94941306114 0.31332364678
          0.53582304716 -0.70241457224 -0.46851629019 0.15314282477 -0.7483150959 0.64542376995
          -0.26585257053 -0.36108314991 0.89383524656 -0.022246170789 0.080456130207 0.99650990963
          0.40466684103 -0.55114597082 0.72971433401 -0.013284858316 -0.0019000323955 0.99990993738
          0.3651805222 -0.62687164545 0.68824058771 -0.040133424103 -0.19213873148 0.98054683208
          0.20959496498 -0.67004197836 0.71211922169 0.056934233755 -0.69306832552 0.71862012148
          -0.22090545297 0.023301417008 0.97501683235 -0.2454136312 -0.091453567147 0.96509504318
          -0.016382103786 -0.81492114067 0.5793402195 -0.18523268402 -0.76730102301 0.61395281553
          -0.32778397202 -0.18942897022 0.92556709051 -0.41380542517 -0.10991562903 0.90370547771
          -0.31710937619 -0.7217400074 0.61525040865 -0.37225866318 -0.75189483166 0.54413032532
          -0.46478629112 -0.087390072644 0.88109976053 -0.49831101298 -0.070450894535 0.86413127184
          -0.41535010934 -0.74492555857 0.52208250761 -0.47318241 -0.70002794266 0.53484523296
          -0.5207040906 0.026788089424 0.85331690311 -0.56618219614 -0.05292802304 0.82257902622
          -0.4964967072 -0.71641737223 0.49014005065 -0.58781802654 -0.047691721469 0.80758625269
          -0.50735867023 -0.72184985876 0.47065916657 -0.59395980835 0.025185666978 0.80410045385
          -0.51499688625 -0.72529929876 0.4568580687 -0.61782282591 -0.051886416972 0.78460353613
          -0.52115553617 -0.72744190693 0.44634658098 -0.064402170479 -0.98374807835 -0.16760738194
          -0.58668494225 -0.80896681547 0.037062048912 -0.076300419867 -0.99134629965 0.10682163388
          -0.53008449078 -0.7861763835 0.3177061677 -0.60889613628 -0.6085087657 0.50888383389
          -0.22484523058 -0.89342910051 0.38888186216 -0.53117334843 0.1124592647 0.83976650238
          -0.548206985 0.83118784428 0.092714577913 -0.6298468709 0.76784664392 -0.11706592888
          -0.4634295404 0.63009983301 0.62306290865 -0.5916442275 0.80198770761 -0.082297153771
          -0.40685355663 0.5871847868 0.69977450371 -0.45465749502 0.87814730406 0.14880827069
          -0.35515379906 0.53360044956 0.76755219698 -0.34841018915 0.62892562151 0.69502729177
          -0.29231524467 0.95632195473 -0.00041402876377 -0.12771312892 0.9832162261 -0.13028924167
          -0.29186013341 0.72101813555 0.62845087051 -0.062632411718 0.98851156235 0.13755765557
          -0.28544139862 0.55586779118 0.78072673082 -0.0048231487162 0.97855645418 0.2059224844
          -0.27415627241 0.63154172897 0.72525399923 -0.27798962593 0.64090412855 0.71551638842
          0.069504000247 0.98876082897 0.13236787915 0.13351777196 0.98833525181 0.073256351054
          -0.284527421 0.64805066586 0.70645213127 -0.30847731233 0.64222735167 0.70170205832
          0.052814386785 0.97110843658 0.23272098601 0.10029233247 0.98032391071 0.17001901567
          -0.3300023973 0.64253222942 0.69155675173 -0.33541822433 0.65526098013 0.67685139179
          0.11452616006 0.98119211197 0.15538927913 0.12268390507 0.98182493448 0.14480483532
          -0.30505779386 0.71011525393 0.63456761837 -0.34798911214 0.66474086046 0.66107726097
          0.12983581424 0.98181301355 0.13851323724 -0.97118192911 -0.18542179465 0.14974816144
          -0.93593049049 0.0072612892836 0.35210987926 -0.5782674551 0.81198978424 -0.079242609441
          -0.027257332578 0.74741506577 -0.66379797459 -0.46745353937 0.50642025471 -0.72458666563
          -0.40710559487 0.49484696984 -0.76771843433 -0.25526449084 0.64686757326 -0.71861147881
          -0.042120914906 0.7291443944 -0.6830624342 0.0831303671 0.70955175161 -0.69973260164
          0.19289711118 0.75712436438 -0.62414216995 0.31434345245 0.78225010633 -0.53784114122
          0.39095062017 0.74930107594 -0.53451430798 0.44401875138 0.69775938988 -0.56212037802
          0.45059224963 0.76214981079 -0.46485939622 0.46509739757 0.77818000317 -0.4220431149
          0.5012549758 0.73221117258 -0.46109679341 0.51465469599 0.72396302223 -0.45935630798
          0.52586787939 0.71767121553 -0.45652058721 -0.48527607322 0.86665576696 0.11582287401
          -0.30299443007 0.76003885269 0.5749220252 -0.9446246624 0.15606048703 0.28866815567
          -0.61982965469 0.09595451504 0.77884787321 -0.12531118095 0.70724242926 0.69577682018
          -0.4969497025 0.21688084304 0.8402402997 -0.71254217625 -0.52128773928 0.46961984038
          -0.71212035418 -0.67320293188 0.1992046237 -0.062645077705 0.66078728437 0.7479544282
          -0.53149741888 0.16609236598 0.83061659336 -0.78582769632 -0.3652434051 0.49907124043
          0.27775153518 0.68517184258 -0.67334514856 0.27838376164 0.82429748774 -0.4929870069
          -0.057876974344 0.97223591805 -0.22673255205 0.077971257269 0.99315679073 0.086948812008
          0.40072661638 0.82087671757 -0.40691488981 0.25311404467 0.95352017879 0.16350096464
          0.62130635977 0.59923011065 -0.50487804413 0.44651052356 0.86308807135 0.23602415621
          0.46574407816 0.26474431157 -0.84438914061 0.32857564092 0.23455668986 -0.91488867998
          0.03124749288 -0.38792744279 -0.92116010189 -0.057171791792 -0.67258584499 -0.73780739307
          0.33869206905 0.095532163978 -0.93603491783 0.34362626076 -0.11925455183 -0.93150383234
          -0.17457538843 -0.66093403101 -0.72985595465 0.13012070954 -0.50611394644 -0.85259449482
          -0.38587576151 -0.78132683039 -0.49053880572 -0.41575607657 -0.87163931131 -0.25959941745
          -0.62394618988 -0.76871609688 -0.14059445262 -0.5593739748 -0.81497436762 -0.15138562024
          -0.28031975031 -0.7858684063 -0.55120939016 -0.44796478748 -0.80689811707 -0.38502335548
          -0.12273001671 -0.8526429534 -0.5078753233 -0.50664412975 -0.81357049942 -0.28533282876
          0.17330701649 -0.70304083824 -0.68970888853 -0.46945890784 -0.8751552701 -0.11709689349
          -0.51462686062 -0.83821433783 0.18043269217 -0.70820051432 -0.69394809008 -0.12995414436
          -0.732665658 -0.63024944067 0.25687888265 -0.86031961441 -0.41093334556 0.30163547397
          -0.84306913614 -0.53442537785 -0.060200694948 -0.2935539484 -0.8751552701 0.38461589813
          -0.10945760459 -0.80689817667 0.5804604888 -0.47199690342 -0.69394820929 0.54374158382
          -0.17814140022 -0.72612059116 0.66408932209 -0.60720223188 -0.51982218027 0.60090792179
          0.14786201715 -0.81749200821 0.55663609505 -0.950928092 -0.30878663063 0.01966355741
          -0.92648440599 -0.19002614915 0.3248334825 -0.94367915392 2.1137922523e-09 0.3308621347
          -0.99986094236 -0.011370850727 0.012200044468 -0.74714720249 -0.30054789782 0.59282553196
          -0.72905892134 0.11804308742 0.67419505119 -0.92648440599 0.19002611935 0.32483351231
          -0.96872073412 0.23915463686 0.066221274436 -0.86031961441 0.41093328595 0.30163559318
          -0.83731216192 0.5461255908 -0.02559893392 -0.66738402843 0.24481236935 0.70332461596
          -0.54985529184 0.46208363771 0.6958001852 -0.51952892542 0.79930752516 -0.3019887507
          -0.13940006495 0.81231075525 -0.56632047892 -0.44796457887 0.80689829588 -0.38502341509
          -0.18631015718 0.8751552701 -0.44653311372 0.10105415434 0.83821433783 -0.53589630127
          0.21633405983 0.71054446697 -0.66957163811 -0.75731605291 0.61410373449 0.22214661539
          -0.71637070179 0.67958414555 -0.15804618597 -0.59188044071 0.77914619446 -0.20641887188
          -0.23709592223 0.59003281593 0.77178162336 -0.5653424859 0.57822942734 0.58825045824
          -0.35969516635 -0.91454905272 -0.18498495221 -0.30040088296 -0.94798016548 0.10532327741
          -0.14097613096 -0.92666012049 0.34846350551 -0.72835922241 -0.54413998127 -0.41641873121
          -0.090137809515 -0.023034060374 -0.99566292763 -0.61251378059 -0.78097784519 0.12206754088
          0.59433567524 -0.089983068407 -0.79916721582 0.45130181313 -0.73404616117 0.50744748116
          -0.05296254158 -0.88920295238 0.45443716645 -0.22115433216 -0.84731841087 0.48284819722
          -0.037525899708 0.066581264138 0.99707508087 -0.14133889973 0.19866667688 0.96982204914
          -0.048923697323 0.61303430796 0.78854012489 0.19043125212 0.93612653017 0.29564020038
          0.82007706165 -0.34668758512 0.45528161526 0.18627864122 0.83127260208 0.52372342348
          0.77648389339 -0.34616175294 0.5265403986 0.61113530397 -0.41705870628 0.67273747921
          0.64509767294 -0.51088708639 0.56819313765 0.0077965739183 -0.008888669312 0.99993014336
          -0.39319565892 -0.59039229155 0.70486468077 -0.55831307173 -0.82962477207 -0.0030201850459
          0.54049474001 0.84134113789 0.0032639398705 0.54049623013 0.84134018421 0.003262917744
          0.3877017796 0.58863228559 0.7093654871 -0.0077969036065 0.0088887996972 -0.99993014336
          0.37667572498 0.6012031436 -0.7047483325 0.18880841136 -0.74260449409 0.6425652504
          -0.40425404906 -0.57788264751 -0.70896422863 0.126040712 0.66535806656 0.73580735922
          -0.48956009746 0.16874748468 0.8554853797 -0.668623209 -0.32262060046 0.6699693799
          0.7336357832 0.38455989957 -0.56026089191 0.66690438986 0.73049759865 0.14700976014
          0.391533494 -0.11277521402 -0.91322690248 -0.15351173282 0.4613506794 0.87383621931
          -0.75306785107 0.65122240782 0.093798920512 -0.44680222869 0.67790800333 -0.58378815651
          -0.57707065344 0.51549035311 0.6334503293 0.59123814106 -0.64003694057 0.49070373178
          0.25597691536 -0.71795558929 0.64731425047 0.54293036461 -0.51967221498 -0.65967220068
          0.58705061674 -0.50484085083 -0.63285654783 0.71344983578 -0.24231746793 -0.65747362375
          0.67574065924 0.034424908459 -0.73633515835 0.6786776185 0.24376049638 -0.69280415773
          0.56480276585 0.47730350494 -0.67318588495 0.18345488608 0.6489136219 0.73841416836
          0.46664386988 0.69394803047 -0.54834258556 0.33613827825 0.8751553297 -0.34801474214
          0.070486858487 0.92482876778 -0.37379601598 -0.24055321515 0.88367199898 -0.40156939626
          -0.44625273347 -0.72451120615 0.52530181408 -0.071315206587 -0.98112797737 -0.17972780764
        </DataArray>
        <DataArray type="Float32" Name="RTNeuron Opacity" format="ascii" RangeMin="0.077146999538" RangeMax="0.32211884856">
          0.32211884856 0.32211884856 0.32211884856 0.32211884856 0.32211884856 0.32211884856
          0.15791592002 0.1193426773 0.11985100061 0.11948978156 0.21875597537 0.1193426773
          0.11934268475 0.11934268475 0.1193426773 0.11934268475 0.1193426773 0.1193426773
          0.1193426773 0.1193426773 0.1193426773 0.1193426773 0.1193426773 0.1193426773
          0.1193426773 0.1193426773 0.1193426773 0.1193426773 0.15791592002 0.14078713953
          0.1193426773 0.1193426773 0.1193426773 0.11934266984 0.11934268475 0.1193426773
          0.1193426773 0.1193426773 0.1193426773 0.1193426773 0.1193426773 0.32211884856
          0.15791592002 0.32211884856 0.14157232642 0.1193426773 0.11934266984 0.1193426773
          0.11934268475 0.11934266984 0.1193426773 0.1193426773 0.1193426773 0.1193426773
          0.1193426773 0.1193426773 0.11934268475 0.18766376376 0.1193426773 0.1193426773
          0.1193426773 0.1193426773 0.1193426773 0.11934266984 0.1193426773 0.32211884856
          0.15791592002 0.2809432447 0.14420492947 0.10796133429 0.099760510027 0.099130436778
          0.1027565524 0.31589576602 0.093861371279 0.093159504235 0.088309943676 0.088192783296
          0.088164001703 0.092780262232 0.082769371569 0.082516416907 0.077147006989 0.077147014439
          0.077550858259 0.083045981824 0.077146999538 0.077147006989 0.077147006989 0.077147006989
          0.077147006989 0.077147006989 0.077147006989 0.077146999538 0.077147006989 0.077147006989
          0.077147006989 0.077147014439 0.077147014439 0.077147006989 0.077147006989 0.077147006989
          0.077147006989 0.077147006989 0.077147006989 0.077147006989 0.077147014439 0.077147006989
          0.077147006989 0.077147006989 0.077147006989 0.077147006989 0.077147006989 0.077147006989
          0.077147006989 0.077147006989 0.077147006989 0.077147006989 0.077147006989 0.32211884856
          0.32211884856 0.15791592002 0.15791592002 0.099130436778 0.10646202415 0.09452483058
          0.094828568399 0.088574871421 0.088466741145 0.0825881809 0.082463942468 0.077147006989
          0.077147006989 0.077147014439 0.077147006989 0.077147006989 0.077147006989 0.077147006989
          0.077147006989 0.077147006989 0.077146999538 0.077147014439 0.077147014439 0.077147006989
          0.077147006989 0.077147014439 0.077146999538 0.077147006989 0.077147006989 0.077147006989
          0.077146999538 0.077147006989 0.077147006989 0.077147006989 0.077147006989 0.31815683842
          0.32211884856 0.15791592002 0.099130436778 0.099130436778 0.099130436778 0.094451799989
          0.09375153482 0.088429063559 0.08854611963 0.083117596805 0.082864962518 0.077721074224
          0.077183067799 0.077147006989 0.077147006989 0.077147006989 0.077147006989 0.077147006989
          0.077147006989 0.077147006989 0.077147006989 0.077147006989 0.077147006989 0.077147014439
          0.077146999538 0.077147006989 0.077147006989 0.077147006989 0.077147006989 0.077146999538
          0.077147006989 0.077147006989 0.077147006989 0.077147006989 0.077146999538 0.31015527248
          0.099130436778 0.099130436778 0.093086071312 0.088272243738 0.083169929683 0.07782459259
          0.077147006989 0.077147006989 0.077147014439 0.077146999538 0.077147006989 0.077147006989
          0.077147006989 0.077147006989 0.077147006989 0.077147006989 0.077147006989 0.32211884856
          0.099130436778 0.3210041821 0.099130436778 0.17018416524 0.17018416524 0.17018416524
          0.099130436778 0.15707300603 0.15697145462 0.15673990548 0.32211884856 0.15791592002
          0.32211884856 0.099130436778 0.17018416524 0.17018416524 0.15668338537 0.15693381429
          0.32211884856 0.15791592002 0.099130436778 0.099130436778 0.17018416524 0.1564514935
          0.15634961426 0.14194819331 0.099130436778 0.17018416524 0.15648922324 0.14394399524
          0.32211884856 0.32211884856 0.32211884856 0.32211884856 0.32211884856 0.32211884856
          0.32211884856 0.32211884856 0.32211884856 0.32211884856 0.32211884856 0.32211884856
          0.32211884856 0.32211884856 0.32211884856 0.32211884856 0.32211884856 0.32211884856
          0.32211884856 0.32211884856 0.32211884856 0.32211884856 0.32211884856 0.32211884856
          0.32211884856 0.32211884856 0.32211884856 0.32211884856 0.32211884856 0.32211884856
          0.32211884856 0.32211884856 0.32211884856 0.32211884856 0.32211884856 0.32211884856
          0.32211884856 0.32211884856 0.32211884856 0.32211884856 0.32211884856 0.32211884856
          0.32211884856 0.13610614836 0.13412968814 0.13623197377 0.15791592002 0.32211884856
          0.32211884856 0.13610614836 0.30766841769 0.30470693111 0.29350239038 0.32211884856
          0.32211884856 0.32211884856 0.32211884856 0.19257391989 0.32211884856 0.1193426773
          0.1193426773 0.1193426773 0.11934268475 0.1193426773 0.1193426773 0.1193426773
          0.1193426773 0.32211884856 0.1193426773 0.1457144767 0.14547479153 0.14307112992
          0.14479406178 0.145385921 0.14424519241 0.32211884856 0.32211884856 0.11899643391
          0.32211884856 0.32211884856 0.32211884856 0.32211884856 0.32211884856 0.32211884856
          0.32211884856 0.32211884856 0.32211884856 0.32211884856 0.32211884856 0.32211884856
          0.32211884856 0.32211884856 0.099130436778 0.099130436778
        </DataArray>
        <DataArray type="Float32" Name="Voltage" format="ascii" RangeMin="-65" RangeMax="-65">
          -65 -65 -65 -65 -65 -65
          -65 -65 -65 -65 -65 -65
          -65 -65 -65 -65 -65 -65
          -65 -65 -65 -65 -65 -65
          -65 -65 -65 -65 -65 -65
          -65 -65 -65 -65 -65 -65
          -65 -65 -65 -65 -65 -65
          -65 -65 -65 -65 -65 -65
          -65 -65 -65 -65 -65 -65
          -65 -65 -65 -65 -65 -65
          -65 -65 -65 -65 -65 -65
          -65 -65 -65 -65 -65 -65
          -65 -65 -65 -65 -65 -65
          -65 -65 -65 -65 -65 -65
          -65 -65 -65 -65 -65 -65
          -65 -65 -65 -65 -65 -65
          -65 -65 -65 -65 -65 -65
          -65 -65 -65 -65 -65 -65
          -65 -65 -65 -65 -65 -65
          -65 -65 -65 -65 -65 -65
          -65 -65 -65 -65 -65 -65
          -65 -65 -65 -65 -65 -65
          -65 -65 -65 -65 -65 -65
          -65 -65 -65 -65 -65 -65
          -65 -65 -65 -65 -65 -65
          -65 -65 -65 -65 -65 -65
          -65 -65 -65 -65 -65 -65
          -65 -65 -65 -65 -65 -65
          -65 -65 -65 -65 -65 -65
          -65 -65 -65 -65 -65 -65
          -65 -65 -65 -65 -65 -65
          -65 -65 -65 -65 -65 -65
          -65 -65 -65 -65 -65 -65
          -65 -65 -65 -65 -65 -65
          -65 -65 -65 -65 -65 -65
          -65 -65 -65 -65 -65 -65
          -65 -65 -65 -65 -65 -65
          -65 -65 -65 -65 -65 -65
          -65 -65 -65 -65 -65 -65
          -65 -65 -65 -65 -65 -65
          -65 -65 -65 -65 -65 -65
          -65 -65 -65 -65 -65 -65
          -65 -65 -65 -65 -65 -65
          -65 -65 -65 -65 -65 -65
          -65 -65 -65 -65 -65 -65
          -65 -65 -65 -65 -65 -65
          -65 -65 -65 -65 -65 -65
          -65 -65 -65 -65 -65 -65
          -65 -65 -65 -65 -65 -65
          -65 -65 -65 -65 -65 -65
          -65 -65 -65 -65 -65 -65
          -65 -65 -65 -65 -65 -65
          -65 -65 -65 -65 -65 -65
          -65 -65 -65 -65 -65 -65
          -65 -65 -65 -65 -65 -65
          -65 -65 -65 -65
        </DataArray>
      </PointData>
      <CellData Normals="Normal">
        <DataArray type="Int32" Name="Section Id" format="ascii" RangeMin="0" RangeMax="63">
          0 1 0 1 1 0
          1 0 0 0 0 0
          0 0 31 16 31 16
          0 0 47 47 47 47
          47 47 47 47 47 47
          47 47 47 47 47 47
          47 47 47 47 47 47
          47 47 47 47 47 16
          31 47 47 47 31 0
          16 47 47 47 47 47
          47 47 47 47 47 47
          47 47 47 47 47 47
          47 47 47 47 47 47
          47 0 16 31 47 47
          47 31 16 47 47 47
          47 47 47 47 47 47
          47 47 47 47 47 47
          47 47 47 47 47 47
          47 47 47 0 0 16
          31 31 16 0 0 47
          47 47 47 47 47 47
          47 47 47 47 47 47
          47 47 47 47 47 47
          47 47 47 47 47 47
          47 47 0 19 39 58
          58 58 19 39 58 58
          58 58 58 58 58 58
          58 58 58 58 58 58
          58 58 58 58 58 58
          58 58 58 58 58 58
          58 58 58 58 58 58
          58 58 58 58 58 58
          58 58 58 58 58 58
          58 58 58 58 58 58
          58 58 58 58 58 58
          58 58 58 58 0 0
          39 19 39 19 0 0
          58 58 58 58 58 58
          58 58 58 58 58 58
          58 58 58 58 58 58
          58 58 58 58 58 58
          58 58 58 58 58 58
          58 58 58 58 58 58
          58 58 58 58 58 58
          58 58 58 58 58 58
          58 58 58 58 58 58
          58 58 58 58 58 58
          0 19 58 39 39 19
          0 0 58 58 58 58
          58 58 58 58 58 58
          58 58 58 58 58 58
          58 58 58 58 58 58
          58 58 58 58 58 58
          58 58 58 58 58 58
          58 58 58 58 58 58
          58 58 58 58 58 58
          58 58 58 58 58 58
          58 58 58 58 58 58
          58 58 19 39 58 58
          58 58 19 39 58 58
          58 58 58 58 58 58
          58 58 58 58 58 58
          58 58 58 58 58 58
          58 58 58 58 58 58
          58 58 58 58 58 58
          58 58 58 58 58 58
          58 58 58 58 58 58
          58 58 58 58 58 58
          58 58 58 58 58 58
          58 58 58 58 20 39
          59 59 59 59 20 39
          59 59 59 59 59 59
          59 59 0 20 39 59
          59 59 39 20 59 59
          59 59 59 59 59 59
          0 20 59 39 39 20
          0 0 59 59 59 59
          59 59 59 59 20 39
          59 59 59 59 20 39
          59 59 59 59 59 59
          59 59 0 0 0 0
          0 0 0 0 0 0
          0 0 0 0 0 0
          0 0 0 0 0 0
          0 0 0 0 0 0
          0 0 0 0 0 0
          0 0 0 0 0 0
          0 0 0 0 0 0
          0 0 0 0 0 0
          0 0 0 0 0 0
          0 0 0 0 0 0
          0 0 0 0 0 0
          0 0 0 0 0 0
          0 0 0 0 0 0
          0 0 0 0 0 0
          0 0 0 0 0 0
          0 0 0 0 0 0
          0 0 0 0 0 0
          0 0 0 0 0 0
          0 0 0 0 0 0
          0 0 0 0 0 0
          0 23 23 0 61 63
          61
        </DataArray>
        <DataArray type="Float32" Name="Normal" NumberOfComponents="3" format="ascii" RangeMin="0.45769387781" RangeMax="0.9967272539">
          -0.4402153492 -0.63997292519 -0.51411587 -0.30294635892 -0.3781786561 -0.74352651834
          -0.49084833264 -0.83702898026 -0.012057821266 -0.61427259445 -0.71117824316 -0.20059403777
          0.1379519552 -0.22679300606 -0.87110936642 -0.21073444188 -0.88607120514 0.3621584177
          -0.39725151658 -0.84999614954 0.25136855245 -0.2929674387 0.38930654526 0.75437802076
          -0.17987945676 0.1934197247 0.94824707508 -0.12181910127 0.46008884907 0.85404276848
          -0.22576907277 0.36074781418 0.8838108182 -0.1092325002 0.59634494781 0.56031000614
          -0.012613255531 0.6709575057 0.70534324646 0.70578992367 -0.13146243989 0.58490878344
          0.58770251274 -0.032358843833 0.69251680374 0.56977677345 -0.20580269396 0.67018020153
          0.38145267963 -0.60056060553 0.65020108223 0.39864954352 -0.60812354088 0.63279372454
          0.6284032464 -0.48314866424 0.58453577757 0.61708241701 -0.4518725276 0.61938387156
          0.32428956032 -0.38024938107 0.72730582952 0.30138406157 -0.22187054157 0.80175542831
          0.082343116403 -0.2592562139 0.88848304749 -0.15765680373 -0.42813244462 0.81191778183
          -0.34041798115 -0.7056183219 0.47751948237 -0.34211561084 -0.80573487282 0.3104736805