<VTKFile type="PolyData" version="1.0" byte_order="LittleEndian" header_type="UInt64">
  <PolyData>
    <Piece NumberOfPoints="300" NumberOfVerts="0" NumberOfLines="0" NumberOfStrips="0" NumberOfPolys="504">
      <PointData Normals="Normal">
        <DataArray type="Int32" Name="Section Id" format="ascii" RangeMin="0" RangeMax="82">
          47 47 47 47 47 47
          47 47 47 47 47 47
          47 48 48 48 55 55
          47 55 55 55 55 55
          55 55 55 55 55 55
          55 47 47 47 47 47
          47 47 47 47 47 47
          48 55 48 55 55 55
          55 55 55 55 47 47
          47 47 47 47 47 47
          47 47 47 47 55 55
          48 55 55 55 55 55
          55 55 55 47 47 47
          47 47 55 55 55 55
          55 59 59 59 59 59
          59 59 59 68 0 68
          68 68 68 68 0 68
          68 69 69 69 69 69
          82 82 69 69 82 82
          82 68 68 68 68 69
          68 68 69 69 69 82
          69 82 82 0 68 68
          68 69 69 69 69 69
          69 69 69 82 69 69
          82 82 82 82 82 0
          68 68 69 69 69 69
          69 69 69 82 82 82
          0 0 48 48 48 48
          48 48 48 49 52 52
          52 49 52 52 52 52
          52 52 48 48 48 48
          48 48 52 52 52 52
          52 52 48 48 48 48
          48 49 52 52 52 52
          52 52 48 48 52 52
          52 49 49 49 49 49
          49 49 49 49 49 49
          49 49 49 49 49 49
          49 49 49 49 49 49
          49 49 49 49 49 49
          49 49 49 49 49 49
          49 49 49 49 49 49
          49 49 49 49 49 49
          49 49 49 49 49 49
          65 65 69 69 69 69
          69 69 69 69 69 69
          69 69 69 69 69 69
          82 82 82 82 82 82
          82 82 82 82 82 82
          82 82 82 0 0 0
        </DataArray>
        <DataArray type="Float32" Name="Normal" NumberOfComponents="3" format="ascii" RangeMin="0.99999993501" RangeMax="1.0000000956">
          0.0077965739183 -0.008888669312 0.99993014336 -0.39319565892 -0.59039229155 0.70486468077
          -0.010155944154 0.00264493539 0.99994492531 -0.01579667069 0.079314477742 0.99672448635
          -0.44004544616 -0.55802977085 0.70353597403 -0.59554195404 -0.80077934265 -0.063893564045
          -0.55831307173 -0.82962477207 -0.0030201850459 -0.17056156695 -0.27320444584 0.94671446085
          -0.4795947969 -0.56769949198 0.66910845041 -0.17600291967 -0.84176790714 0.51034283638
          -0.48040723801 -0.64922595024 0.58967328072 -0.62549936771 -0.77272212505 0.10794071853
          -0.62521463633 -0.77796500921 0.062266401947 -0.58310997486 -0.72787725925 0.36080116034
          -0.49515101314 -0.85135179758 0.17327907681 -0.75347369909 -0.58135008812 0.30709847808
          -0.62413674593 -0.60850244761 0.49007970095 -0.61529308558 -0.78620809317 0.057369232178
          -0.61484289169 -0.77133405209 0.16435357928 -0.50171983242 -0.21299433708 0.83839762211
          -0.55103462934 -0.4761428833 0.68530935049 -0.16928787529 0.11454567313 0.97888761759
          -0.57103842497 -0.5333147049 0.62409186363 -0.58724194765 -0.80711263418 -0.06096028164
          -0.60548299551 -0.79583179951 -0.0064949360676 -0.52681660652 -0.49694085121 0.68957525492
          -0.13486738503 0.088493123651 0.98690414429 -0.10894612968 0.068641521037 0.99167490005
          -0.48830971122 -0.52399641275 0.69784063101 -0.5356105566 -0.84443175793 0.0075147012249
          -0.54686063528 -0.83164352179 -0.096501283348 0.54049474001 0.84134113789 0.0032639398705
          0.54049623013 0.84134018421 0.003262917744 0.3877017796 0.58863228559 0.7093654871
          0.37099632621 0.59913885593 0.70950293541 0.52242726088 0.85267668962 0.0035049144644
          0.48623260856 0.87382042408 0.0039707412943 0.34575811028 0.6604218483 0.66655409336
          0.46283850074 0.88420510292 -0.062942743301 0.40921938419 0.60761016607 0.68069773912
          0.57631599903 0.81365734339 -0.07630059123 0.77196407318 0.20747807622 0.60085308552
          0.53919959068 0.83644545078 -0.098096355796 0.58101892471 0.81310427189 0.03575738892
          -0.20022906363 0.81245982647 0.54755586386 0.20417094231 0.6544585824 0.72800981998
          0.63131964207 0.77118593454 -0.081901080906 0.35469120741 0.6799518466 0.64176291227
          0.33032941818 0.62642043829 0.70603120327 0.64874702692 0.76063853502 0.02358652465
          0.6727617979 0.7392244935 0.03064074181 0.3665125072 0.59630650282 0.71420389414
          -0.0077969036065 0.0088887996972 -0.99993014336 0.37667572498 0.6012031436 -0.7047483325
          0.35999169946 0.61177355051 -0.70437145233 -0.025763226673 0.020428862423 -0.99945932627
          -0.061068080366 0.043118223548 -0.99720185995 0.31071722507 0.64091354609 -0.70191502571
          -0.094258226454 0.064768366516 -0.9934387207 0.27286660671 0.62455457449 -0.73176193237
          -0.092467553914 0.064648061991 -0.99361479282 0.36554798484 0.76088237762 -0.53612756729
          0.067635171115 -0.043454475701 -0.99676334858 0.53441852331 0.74128443003 -0.40607181191
          0.17296375334 -0.1172009483 -0.97793018818 0.61343634129 0.62596738338 -0.48151922226
          0.4710200429 0.86028581858 -0.19506031275 0.5559450388 0.47746536136 -0.68040573597
          0.17964571714 -0.12267816067 -0.97605198622 0.1902218312 -0.13091702759 -0.97297298908
          0.53490161896 0.4152020812 -0.73585832119 0.58238106966 0.45442372561 -0.674041152
          0.22111424804 -0.15465594828 -0.96290707588 0.24609574676 -0.17385435104 -0.95352584124
          0.61767375469 0.42475888133 -0.66186028719 -0.40425404906 -0.57788264751 -0.70896422863
          -0.42637622356 -0.51154863834 -0.74600362778 -0.48475572467 -0.55716264248 -0.67422670126
          -0.49131900072 -0.57691144943 -0.65251737833 -0.42004725337 -0.66076600552 -0.62205201387
          -0.33172518015 -0.66616517305 -0.66796886921 -0.30347362161 -0.64998668432 -0.69672173262
          -0.27441418171 -0.63727110624 -0.72012668848 -0.22686356306 -0.6295222044 -0.74312502146
          -0.2371481061 -0.69554227591 -0.6782194972 0.126040712 0.66535806656 0.73580735922
          -0.48956009746 0.16874748468 0.8554853797 -0.668623209 -0.32262060046 0.6699693799
          0.3060580492 0.43778201938 0.84538477659 -0.36747375131 0.0048280879855 0.93002140522
          0.7336357832 0.38455989957 -0.56026089191 0.66690438986 0.73049759865 0.14700976014
          0.391533494 -0.11277521402 -0.91322690248 0.91424649954 0.27854058146 0.29422518611
          0.37121158838 0.42748036981 0.82429516315 0.30516716838 0.2613645792 0.91573005915
          0.98807501793 0.10429614037 0.11326985806 0.44629964232 0.18970192969 0.87454551458
          -0.15874351561 0.26203876734 0.95191180706 -0.15082040429 0.33078029752 0.93157804012
          -0.15351173282 0.4613506794 0.87383621931 0.45208078623 0.092783607543 0.88713824749
          0.96202927828 -0.021516488865 0.27209702134 0.91550010443 -0.12176029384 0.3834502697
          0.40536534786 0.040469810367 0.91325861216 -0.32436707616 0.17023853958 0.93048638105
          -0.18594868481 0.19216313958 0.96358525753 0.52563136816 0.027240224183 0.85027623177
          0.95427000523 -0.15223111212 0.25728297234 0.42424234748 0.074859499931 0.90244925022
          -0.32717365026 0.24120391905 0.91366189718 -0.24788856506 0.19788347185 0.94836360216
          -0.32741478086 0.29997366667 0.89599967003 -0.32471942902 0.27467602491 0.90504717827
          -0.43628078699 0.34627386928 0.83051401377 0.10463218391 0.67526787519 -0.7301132679
          0.27651122212 0.090784840286 -0.9567130208 0.67786419392 0.53996139765 -0.49894082546
          0.7702203393 0.11384046078 -0.62753564119 0.29612576962 -0.098094254732 -0.95009845495
          0.743737638 -0.038976024836 -0.66733443737 0.81958115101 -0.12276221812 -0.55965721607
          0.56531083584 -0.095841102302 -0.81929129362 0.96545213461 -0.013107541017 0.2602507174
          0.83859241009 -0.22593531013 -0.49569743872 0.85784012079 -0.2723030448 -0.43584570289
          0.44237482548 -0.27798512578 -0.85265988111 0.29307901859 -0.23695260286 -0.92626029253
          0.28069061041 -0.26939243078 -0.92121684551 -0.75306785107 0.65122240782 0.093798920512
          -0.86806708574 0.49632176757 0.011145623401 -0.44680222869 0.67790800333 -0.58378815651
          -0.38415271044 0.23501318693 -0.89285808802 -0.97897946835 0.19886809587 0.045284647495
          -0.3351328373 -0.060190059245 -0.94024634361 0.032025709748 0.19293160737 0.980689466
          -0.91731059551 0.39466693997 0.052719816566 0.40422073007 0.11224872619 0.90774768591
          -0.38496959209 -0.032191600651 -0.92236769199 -0.90045434237 0.118614465 -0.41846469045
          -0.3834875524 -0.092231929302 -0.91892910004 -0.45573744178 -0.089904427528 -0.88556230068
          -0.92696082592 0.14195798337 -0.34726306796 -0.92411398888 0.15294034779 -0.35017517209
          -0.46344190836 -0.097873993218 -0.88070559502 -0.53417766094 -0.059537440538 -0.84327310324
          -0.93972170353 0.20669876039 -0.27239450812 -0.87875533104 0.17268502712 -0.44493696094
          -0.90307825804 0.22000989318 -0.36884322762 -0.57707065344 0.51549035311 0.6334503293
          -0.57015830278 0.41078919172 0.71145749092 -0.64600372314 0.34170299768 0.68258208036
          -0.66362738609 0.22463493049 0.71353906393 -0.62818050385 0.24876900017 0.73722684383
          -0.66501057148 0.12080546468 0.73699867725 -0.77509528399 0.29719516635 0.55758625269
          -0.87950509787 0.26579678059 0.39474418759 -0.8752643466 0.2911708951 0.3861759901
          -0.87233322859 0.31352290511 0.37515097857 -0.88461798429 0.33576160669 0.32359740138
          -0.84420013428 0.38187411427 0.37616255879 -0.83866673708 0.39848226309 0.37128144503
          0.070486858487 0.92482876778 -0.37379601598 -0.24055321515 0.88367199898 -0.40156939626
          0.36313042045 -0.89382064342 0.26309892535 -0.10867889971 -0.97769844532 0.17970749736
          0.62997168303 -0.72945821285 0.266507864 -0.005625479389 -0.9758939743 0.21817292273
          -0.29422959685 -0.95518130064 0.032522894442 -0.69113218784 -0.72099721432 0.049993690103
          0.56273210049 -0.56218135357 0.60604029894 0.0030940070283 -0.80299830437 0.59597325325
          0.41171887517 -0.2329210639 0.88104224205 -0.17661695182 -0.62443161011 0.76084935665
          -0.53093630075 -0.67322909832 0.51465451717 -0.12322281301 -0.86797791719 0.48107224703
          0.35626196861 -0.17358827591 0.91812008619 -0.18141256273 -0.59270650148 0.78472197056
          0.34525623918 -0.16190852225 0.92443698645 -0.25814726949 -0.6180961132 0.74250733852
          -0.70538592339 -0.69948345423 0.11468973011 -0.64022094011 -0.71576106548 0.27893236279
          0.69588619471 0.71188217402 -0.094690151513 0.95157653093 -0.20674656332 0.22750379145
          0.75917232037 0.64007818699 -0.11814151704 0.99172097445 -0.043767336756 0.12072302401
          0.78354036808 0.62124896049 -0.010690072551 0.89326232672 0.064293265343 0.44491443038
          0.70585018396 0.70598846674 -0.057929880917 0.73759132624 0.31068515778 0.59952807426
          0.72835892439 0.37525761127 0.57330191135 0.68979841471 0.7140353322 -0.11971535534
          0.6885342598 0.70681929588 -0.16225647926 0.740475595 0.39249071479 0.54557031393
          -0.12870267034 0.97102874517 -0.2013425529 0.22484558821 0.94560301304 -0.23511572182
          -0.34084537625 0.80639749765 -0.4832675457 0.10943177342 0.95724403858 -0.26778465509
          0.19036793709 0.84969484806 -0.4917100966 -0.007581083104 0.81376183033 -0.58114916086
          -0.28791940212 0.44156333804 -0.84977895021 0.20623196661 0.64233112335 -0.7381592989
          -0.33130118251 0.20511941612 -0.92095905542 0.28762808442 0.64376622438 -0.70910871029
          -0.34533452988 0.16054096818 -0.92464625835 0.23609681427 0.60187220573 -0.76289451122
          -0.99956065416 0.0094288848341 0.028100062162 -0.91042858362 -0.054566059262 -0.41005185246
          -0.86515808105 -0.2431486696 -0.43861174583 -0.76389890909 -0.4120657444 -0.49664905667
          -0.73263931274 -0.37179216743 -0.57009667158 -0.39789095521 -0.60298842192 0.69143891335
          -0.0092878947034 -0.98280954361 0.18438884616 -0.26988711953 -0.75652986765 0.59567070007
          0.1509001106 -0.9880310297 -0.031999088824 0.51029914618 -0.59738236666 -0.61865103245
          0.18938392401 -0.80925291777 -0.55609673262 -0.19544698298 -0.87216824293 0.44846746325
          0.19231079519 -0.9671959281 -0.16597789526 -0.23461024463 -0.84291225672 0.48420757055
          0.17161761224 -0.97351306677 -0.15106227994 0.45283219218 -0.61193186045 -0.64844614267
          0.5051651001 -0.47565287352 -0.72011291981 0.16942547262 -0.97367960215 -0.1524567157
          -0.23621295393 -0.84298533201 0.48330038786 -0.25859540701 -0.81697243452 0.51544606686
          0.14267811179 -0.98334980011 -0.11254408956 0.47381693125 -0.53417181969 -0.70011287928
          0.49711510539 -0.44712719321 -0.74360871315 -0.15750847757 -0.91912508011 0.36110970378
          0.21662892401 -0.94431447983 -0.24767334759 0.46616470814 -0.5347096324 -0.70482349396
          -0.52196788788 0.85283601284 0.01484404318 -0.75153642893 0.015864567831 0.65950083733
          -0.43240141869 0.62500160933 0.64992469549 -0.5012767911 -0.074507527053 0.86207318306
          -0.50546896458 0.39827981591 0.76542431116 -0.47921565175 -0.31229665875 0.82025796175
          -0.46528613567 0.57440274954 0.67347633839 -0.5115531683 -0.16919241846 0.8424294591
          -0.50346302986 -0.21853625774 0.83592283726 -0.47580116987 0.53402423859 0.6988786459
          -0.48469185829 0.49382638931 0.72194826603 -0.5024317503 -0.21838609874 0.83658230305
          -0.49978384376 -0.21823140979 0.83820718527 0.28583753109 0.64147651196 -0.71190232038
          -0.025803452358 0.99395167828 -0.10674416274 0.31678584218 0.75490868092 -0.57424706221
          -0.13694283366 0.98757648468 0.077067688107 0.26273089647 0.80731457472 -0.52840870619
          -0.18907599151 0.96696847677 0.17094507813 0.2112185508 0.86791229248 -0.44957211614
          -0.17161540687 0.973513484 0.1510617286 -0.19311144948 0.96226716042 0.1917026937
          0.18807630241 0.89174121618 -0.41161262989 0.28196337819 0.78689801693 -0.54889732599
          -0.15009698272 0.98078119755 0.12465590984 0.30534601212 0.040611688048 -0.95137512684
          0.56652551889 0.12542627752 -0.8144428134 0.51706302166 0.17720019817 -0.83740437031
          0.50849294662 0.18724647164 -0.84046047926 0.49473387003 0.26476553082 -0.82773041725
          0.50242686272 0.21839049459 -0.83658409119 0.49516165257 0.21784515679 -0.84104609489
          -0.44625273347 -0.72451120615 0.52530181408 -0.071315206587 -0.98112797737 -0.17972780764
          0.74880057573 0.077677585185 0.65822792053 0.3115504384 0.084765806794 0.94644129276
          0.77514380217 0.016444325447 0.63157081604 0.34212732315 0.075238473713 0.93663662672
          -0.27715790272 0.056421689689 0.95916634798 -0.09256862849 0.086851209402 0.99191129208
          0.13967232406 -0.12583087385 -0.98217022419 0.88365906477 -0.024123854935 -0.4675090313
          0.16103237867 -0.16681443155 -0.97274947166 0.93114256859 -0.068188995123 -0.35822311044
          -0.86454021931 -0.089926294982 -0.49445283413 -0.37483841181 -0.12879824638 -0.91809976101
          -0.9146617651 -0.10071078688 -0.39147305489 -0.38813823462 -0.14176721871 -0.91063207388
          -0.87746423483 0.0090949675068 0.47955590487 -0.90637010336 -0.010404207744 0.42235654593
          0.92697203159 -0.13510529697 0.34995654225 0.92615371943 -0.13868060708 0.35072353482
          0.42596173286 0.09661013633 0.89956825972 0.37548065186 0.12677894533 0.91811847687
          0.40710660815 0.12847027183 0.90430063009 -0.27321898937 0.37698101997 0.88500660658
          -0.27533757687 0.37113496661 0.88681906462 0.87035924196 -0.26486247778 -0.41511768103
          0.86282426119 -0.29206040502 -0.41259554029 0.265884161 -0.29284313321 -0.91844904423
          0.8539019227 -0.31775671244 -0.41216772795 -0.39872640371 -0.089096978307 -0.91273158789
          -0.43013831973 -0.059455007315 -0.90080308914 -0.90090942383 0.22583171725 -0.37062400579
          -0.83771240711 0.4012323916 0.37047350407 0.18345488608 0.6489136219 0.73841416836
          0.65184473991 0.75833028555 0.0058022323065 0.3805026412 0.8738168478 -0.30275714397
        </DataArray>
        <DataArray type="Float32" Name="RTNeuron Opacity" format="ascii" RangeMin="0.053237203509" RangeMax="0.32211884856">
          0.1193426773 0.1193426773 0.1193426773 0.12011067569 0.12010975182 0.1201044172
          0.1193426773 0.12788912654 0.12788550556 0.13528108597 0.13441054523 0.13436542451
          0.12786486745 0.099130436778 0.099130436778 0.099130436778 0.053237203509 0.053237203509
          0.13728927076 0.053237203509 0.053237203509 0.053237203509 0.053237203509 0.053237203509
          0.053237203509 0.05940432474 0.059404287487 0.065443180501 0.065443195403 0.065443195403
          0.059404287487 0.11934268475 0.1193426773 0.1193426773 0.1193426773 0.1193426773
          0.12009742856 0.12010509521 0.12783807516 0.12786763906 0.13528878987 0.13452264667
          0.099130436778 0.053237203509 0.099130436778 0.053237203509 0.053237203509 0.053237203509
          0.059404246509 0.05940419063 0.065443068743 0.065443135798 0.1193426773 0.1193426773
          0.1193426773 0.1193426773 0.12009116262 0.12009209394 0.12781381607 0.12781742215
          0.13425381482 0.13426174223 0.13712640107 0.13714034855 0.053237203509 0.053237203509
          0.099130436778 0.053237203509 0.053237203509 0.053237203509 0.053237203509 0.059404209256
          0.059404231608 0.065443113446 0.065443068743 0.1193426773 0.12009675801 0.12783528864
          0.13430078328 0.1372088939 0.053237203509 0.053237203509 0.053237203509 0.059404283762
          0.065443173051 0.1457144767 0.14547479153 0.14307112992 0.13931134343 0.13887703419
          0.14479406178 0.145385921 0.14424519241 0.19238218665 0.32211884856 0.19265350699
          0.18697524071 0.18702581525 0.18707995117 0.11551351845 0.32211884856 0.18417498469
          0.18419715762 0.15442711115 0.15442711115 0.15442711115 0.15442711115 0.15442711115
          0.099130436778 0.099130436778 0.15442711115 0.15442711115 0.099130436778 0.099130421877
          0.099130436778 0.11850066483 0.19198384881 0.11851175129 0.19204030931 0.15442711115
          0.18690560758 0.18427313864 0.15442711115 0.15442711115 0.15442711115 0.099130436778
          0.15442711115 0.099130436778 0.099130436778 0.32211884856 0.11571405083 0.11899643391
          0.19256824255 0.15442711115 0.15442711115 0.15442711115 0.15442711115 0.15442711115
          0.15442711115 0.15442711115 0.15442711115 0.099130436778 0.15442711115 0.15442711115
          0.099130436778 0.099130436778 0.099130436778 0.098642542958 0.093806445599 0.32211884856
          0.11571981013 0.18716025352 0.15442711115 0.15442712605 0.15442711115 0.15442711115
          0.15442711115 0.15442711115 0.15442712605 0.099130421877 0.098647661507 0.093806445599
          0.32211884856 0.32211884856 0.099130444229 0.099130436778 0.099130436778 0.099130436778
          0.099130436778 0.099130436778 0.099130436778 0.077147006989 0.077147006989 0.077147006989
          0.077147006989 0.077147006989 0.077147006989 0.077147006989 0.077147006989 0.077147006989
          0.077147006989 0.077147006989 0.099130436778 0.099130444229 0.099130436778 0.099130436778
          0.099130436778 0.099130436778 0.077147006989 0.077147006989 0.077147006989 0.077147006989
          0.077147006989 0.077147006989 0.099130436778 0.099130421877 0.099130436778 0.099130436778
          0.099130436778 0.077147006989 0.077146999538 0.077147006989 0.077147006989 0.077147006989
          0.077147006989 0.077147006989 0.099130436778 0.099130436778 0.077147014439 0.077147006989
          0.077147006989 0.077147006989 0.077146999538 0.077147006989 0.077146999538 0.077146999538
          0.077147006989 0.077147006989 0.077147006989 0.077147006989 0.077146999538 0.077147006989
          0.077147006989 0.077147006989 0.077146999538 0.077147006989 0.077147006989 0.077146999538
          0.077147006989 0.077147014439 0.077147006989 0.077147006989 0.077147006989 0.077147006989
          0.077147006989 0.077147006989 0.077147006989 0.077147006989 0.077147006989 0.077147006989
          0.077147006989 0.077147014439 0.077147014439 0.077147006989 0.077147006989 0.077147006989
          0.077147006989 0.077147006989 0.077147006989 0.077146999538 0.077147006989 0.077147006989
          0.077147006989 0.077147006989 0.077147006989 0.077147006989 0.077147006989 0.077147014439
          0.077147006989 0.077147006989 0.077147006989 0.077147006989 0.077147006989 0.077147006989
          0.099130436778 0.099130436778 0.15442711115 0.15442711115 0.15442711115 0.15442711115
          0.15442711115 0.15442711115 0.15442711115 0.15442711115 0.15442711115 0.15442711115
          0.15442711115 0.15442711115 0.15442711115 0.15442711115 0.15442711115 0.15442711115
          0.099130436778 0.099130444229 0.099130436778 0.099130436778 0.099130436778 0.088369518518
          0.093806445599 0.099130436778 0.099130436778 0.099130436778 0.099130436778 0.09863012284
          0.0938064605 0.088369503617 0.088369503617 0.32211884856 0.32211884856 0.32211884856
        </DataArray>
        <DataArray type="Float32" Name="Voltage" format="ascii" RangeMin="-65" RangeMax="-65">
          -65 -65 -65 -65 -65 -65
          -65 -65 -65 -65 -65 -65
          -65 -65 -65 -65 -65 -65
          -65 -65 -65 -65 -65 -65
          -65 -65 -65 -65 -65 -65
          -65 -65 -65 -65 -65 -65
          -65 -65 -65 -65 -65 -65
          -65 -65 -65 -65 -65 -65
          -65 -65 -65 -65 -65 -65
          -65 -65 -65 -65 -65 -65
          -65 -65 -65 -65 -65 -65
          -65 -65 -65 -65 -65 -65
          -65 -65 -65 -65 -65 -65
          -65 -65 -65 -65 -65 -65
          -65 -65 -65 -65 -65 -65
          -65 -65 -65 -65 -65 -65
          -65 -65 -65 -65 -65 -65
          -65 -65 -65 -65 -65 -65
          -65 -65 -65 -65 -65 -65
          -65 -65 -65 -65 -65 -65
          -65 -65 -65 -65 -65 -65
          -65 -65 -65 -65 -65 -65
          -65 -65 -65 -65 -65 -65
          -65 -65 -65 -65 -65 -65
          -65 -65 -65 -65 -65 -65
          -65 -65 -65 -65 -65 -65
          -65 -65 -65 -65 -65 -65
          -65 -65 -65 -65 -65 -65
          -65 -65 -65 -65 -65 -65
          -65 -65 -65 -65 -65 -65
          -65 -65 -65 -65 -65 -65
          -65 -65 -65 -65 -65 -65
          -65 -65 -65 -65 -65 -65
          -65 -65 -65 -65 -65 -65
          -65 -65 -65 -65 -65 -65
          -65 -65 -65 -65 -65 -65
          -65 -65 -65 -65 -65 -65
          -65 -65 -65 -65 -65 -65
          -65 -65 -65 -65 -65 -65
          -65 -65 -65 -65 -65 -65
          -65 -65 -65 -65 -65 -65
          -65 -65 -65 -65 -65 -65
          -65 -65 -65 -65 -65 -65
          -65 -65 -65 -65 -65 -65
          -65 -65 -65 -65 -65 -65
          -65 -65 -65 -65 -65 -65
          -65 -65 -65 -65 -65 -65
          -65 -65 -65 -65 -65 -65
          -65 -65 -65 -65 -65 -65
          -65 -65 -65 -65 -65 -65
        </DataArray>
      </PointData>
      <CellData>
      </CellData>
      <Points>
        <DataArray type="Float32" Name="Points" NumberOfComponents="3" format="ascii" RangeMin="986.36639763" RangeMax="1009.7632986">
          166.4576416 954.9329834 213.66075134 165.16583252 955.19665527 213.43458557
          165.42556763 955.59594727 213.67468262 164.32313538 956.30438232 213.63545227
          164.08317566 955.93511963 213.41348267 163.9614563 955.75292969 212.97174072
          165.03315735 955.00018311 212.95671082 162.95500183 957.18395996 213.49156189
          162.77438354 956.90484619 213.32402039 161.64109802 958.0904541 213.69316101
          161.64945984 957.75994873 213.22389221 161.59516907 957.66192627 212.99905396
          162.68547058 956.76531982 212.99061584 161.11839294 958.15460205 213.17079163
          161.154953 958.35998535 213.83711243 160.63972473 958.76550293 213.51693726
          160.40608215 958.6895752 212.99940491 160.3744812 958.59747314 212.81225586
          161.08047485 958.06695557 212.98277283 158.83575439 960.12683105 212.63883972
          158.73744202 959.96569824 212.54432678 157.14500427 961.42352295 212.17799377
          157.04403687 961.25695801 212.08059692 157.01879883 961.15649414 211.88905334
          158.71029663 959.87036133 212.35804749 156.25749207 961.83728027 211.88319397
          156.36761475 962.01947021 211.98957825 156.04692078 962.26489258 211.93734741
          155.92436218 962.06219482 211.81896973 155.89474487 961.93920898 211.58631897
          156.23088074 961.72680664 211.67416382 167.99594116 954.79821777 212.93182373
          166.83888245 955.54150391 212.94744873 166.71366882 955.33654785 213.42376709
          165.68159485 955.99951172 213.43769836 165.80682373 956.20446777 212.96139526
          164.67785645 956.86541748 212.97607422 164.56077576 956.67681885 213.41638184
          163.2301178 957.6026001 212.99397278 163.13748169 957.4630127 213.32624817
          161.83557129 958.40344238 213.35449219 161.92860413 958.22851562 213.76832581
          160.84913635 959.0256958 213.2169342 159.04925537 960.32403564 212.36354065
          160.49975586 959.12506104 213.53222656 158.96340942 960.26812744 212.54798889
          157.37213135 961.62188721 211.89556885 157.27960205 961.56726074 212.08494568
          156.51567078 962.17565918 211.88813782 156.6181488 962.234375 211.68157959
          156.32574463 962.50408936 211.59457397 156.21170044 962.43878174 211.82446289
          166.44647217 954.94573975 212.22947693 166.70622253 955.34503174 212.46958923
          165.67416382 956.00799561 212.48352051 165.41441345 955.60870361 212.2434082
          164.31617737 956.31396484 212.31236267 164.55613708 956.6831665 212.53431702
          162.96060181 957.184021 212.49302673 163.14122009 957.46307373 212.66056824
          161.79516602 957.93505859 212.66381836 161.91610718 958.12420654 212.77690125
          161.26733398 958.28326416 212.70314026 161.36755371 958.4430542 212.79795837
          160.57693481 958.80273438 212.53483582 160.67604065 958.96325684 212.62948608
          161.36965942 958.71014404 213.48706055 159.02209473 960.2286377 212.17726135
          158.92378235 960.06756592 212.08274841 157.2459259 961.3548584 211.60661316
          157.34687805 961.52142334 211.70401001 156.59153748 962.12384033 211.47253418
          156.48141479 961.94171143 211.36616516 156.17355347 962.17840576 211.24356079
          156.29611206 962.38110352 211.36193848 165.15838623 955.20513916 212.48040771
          164.07853699 955.94152832 212.53143311 162.77812195 956.90490723 212.6583252
          161.66595459 957.75061035 212.77511597 161.15087891 958.13391113 212.79580688
          160.45391846 958.65802002 212.62657166 158.79612732 959.9262085 212.17359924
          157.11132812 961.21112061 211.69967651 156.33335876 961.78552246 211.46759033
          156.00878906 962.0045166 211.35643005 165.80003357 955.42810059 186.8677063
          165.33407593 955.09753418 186.90689087 164.72042847 954.77764893 186.46514893
          165.26602173 956.08312988 186.5153656 164.81626892 955.79956055 186.54508972
          166.21833801 955.32562256 185.87431335 166.14126587 955.49273682 186.41313171
          165.89183044 954.9609375 185.58235168 180.91654968 957.64971924 200.02302551
          180.38316345 955.05273438 201.42324829 180.22970581 957.59259033 200.59025574
          180.6098938 959.88922119 199.69671631 180.20654297 959.90002441 200.056427
          179.60870361 959.94512939 200.11863708 179.09854126 957.6159668 200.70079041
          178.55078125 955.05859375 201.5980072 180.25935364 961.05096436 199.8578186
          180.56517029 960.99700928 199.56790161 180.69668579 961.73248291 199.49357605
          180.39515686 961.81396484 199.78213501 179.97904968 961.89208984 199.82717896
          179.84092712 961.11431885 199.90359497 180.62101746 962.95758057 199.61708069
          180.91877747 962.85528564 199.33070374 180.8742218 964.16802979 199.41075134
          180.46214294 964.26690674 199.45300293 180.20695496 963.04705811 199.66091919
          180.86079407 965.96875 199.07850647 180.68209839 965.23962402 199.25164795
          180.99217224 966.45800781 198.95526123 179.2558136 956.05285645 197.99035645
          179.58363342 958.02880859 198.6529541 180.73666382 955.84075928 198.75846863
          180.55308533 957.86779785 199.22502136 180.04039001 961.31408691 198.61196899
          180.48506165 959.95422363 199.18014526 180.51696777 960.99145508 199.14572144
          180.27407837 962.70269775 198.59709167 180.31671143 962.70166016 198.62893677
          180.64440918 961.7008667 199.07266235 180.8629303 962.80395508 198.91186523
          180.56982422 962.81652832 198.60310364 180.81539917 963.98986816 198.40274048
          181.0269928 964.92523193 198.20878601 175.92713928 955.00360107 199.1270752
          177.76560974 957.72015381 199.33073425 177.5919342 955.85247803 198.14910889
          178.45246887 957.91473389 198.76350403 179.04615784 961.33465576 199.0377655
          179.31954956 961.64874268 198.61862183 179.50918579 962.86791992 198.99714661
          179.85801697 963.00830078 198.93331909 179.89122009 963.56280518 198.67871094
          180.15576172 962.90594482 198.64694214 180.10896301 964.2074585 198.72868347
          180.40332031 964.08874512 198.44499207 180.61703491 965.0333252 198.24909973
          180.32583618 965.16595459 198.52998352 180.50256348 965.88665771 198.3586731
          180.79110718 965.74310303 198.08030701 180.91973877 966.22155762 197.95962524
          180.63311768 966.37249756 198.23620605 180.7646637 966.79333496 198.12695312