<VTKFile type="PolyData" version="1.0" byte_order="LittleEndian" header_type="UInt64">
  <PolyData>
    <Piece NumberOfPoints="293" NumberOfVerts="0" NumberOfLines="0" NumberOfStrips="0" NumberOfPolys="530">
      <PointData Normals="Normal">
        <DataArray type="Int32" Name="Section Id" format="ascii" RangeMin="0" RangeMax="44">
          0 0 0 0 0 0
          0 0 0 0 0 0
          0 0 0 0 0 0
          0 0 0 0 0 0
          0 0 0 0 0 1
          1 1 1 1 1 1
          1 1 1 1 1 1
          1 1 1 1 1 1
          1 1 1 1 1 1
          1 1 1 1 1 1
          1 1 1 1 1 1
          1 1 1 1 1 1
          1 1 1 1 1 1
          1 1 1 1 1 1
          1 1 1 1 1 0
          1 1 1 1 1 1
          1 1 1 1 1 1
          1 1 1 1 1 1
          1 1 1 1 1 1
          1 1 1 1 1 1
          1 1 1 1 1 1
          1 1 1 1 1 0
          0 0 1 1 1 1
          1 1 1 1 1 1
          1 1 1 1 1 1
          1 1 1 1 1 1
          1 1 1 1 1 1
          1 1 1 1 1 1
          1 1 1 1 1 0
          1 1 1 1 1 1
          1 1 1 1 1 1
          1 1 1 1 1 1
          1 1 0 0 44 44
          44 0 44 44 44 44
          44 44 44 44 44 44
          44 44 44 44 44 44
          44 44 44 44 44 44
          44 44 0 0 0 44
          44 44 44 44 44 44
          44 44 44 44 44 44
          44 44 44 44 44 44
          0 44 0 44 44 44
          44 44 44 44 44 44
          44 44 44 44 44 44
          44 44 44 44 0 0
          44 44 44 44 44 44
          44 44 44 0 0 0
          44 44 44 44 44 44
          44 44 0 0 0
        </DataArray>
        <DataArray type="Float32" Name="Normal" NumberOfComponents="3" format="ascii" RangeMin="0.99999994514" RangeMax="1.0000000874">
          0.18880841136 -0.74260449409 0.6425652504 0.59123814106 -0.64003694057 0.49070373178
          0.25597691536 -0.71795558929 0.64731425047 0.8030282259 -0.53811019659 -0.25609198213
          0.79338693619 -0.57686579227 0.19432723522 0.86031961441 -0.41093334556 -0.30163559318
          0.85938060284 -0.47063618898 0.19991658628 0.54293036461 -0.51967221498 -0.65967220068
          0.58705061674 -0.50484085083 -0.63285654783 0.94147247076 -0.26214435697 0.21191978455
          0.92648434639 -0.19002625346 -0.32483351231 0.94367915392 -2.1137924744e-09 -0.3308621347
          0.98752528429 -0.091740056872 0.12797477841 0.71344983578 -0.24231746793 -0.65747362375
          0.67574065924 0.034424908459 -0.73633515835 0.92648440599 0.19002620876 -0.3248333931
          0.97012585402 0.24259282649 -0.0021584411152 0.86031967402 0.41093331575 -0.30163544416
          0.85221141577 0.51544821262 0.089715860784 0.6786776185 0.24376049638 -0.69280415773
          0.56480276585 0.47730350494 -0.67318588495 0.59821099043 0.68553423882 0.41495344043
          0.18345488608 0.6489136219 0.73841416836 0.73852020502 0.62252908945 -0.2589315474
          0.72473245859 0.67958402634 0.11370322853 0.55742239952 0.80689817667 -0.19543708861
          0.65184473991 0.75833028555 0.0058022323065 0.46664386988 0.69394803047 -0.54834258556
          0.33613827825 0.8751553297 -0.34801474214 -0.72835922241 -0.54413998127 -0.41641873121
          -0.090137809515 -0.023034060374 -0.99566292763 -0.067376427352 0.34611028433 -0.9357714057
          -0.82329750061 -0.17404209077 -0.54026901722 -0.82748478651 -0.55927413702 0.049813229591
          -0.61251378059 -0.78097784519 0.12206754088 -0.80772089958 0.3581417799 -0.46831765771
          -0.14218652248 0.54861408472 -0.8238966465 -0.20301556587 0.63979828358 -0.74124413729
          -0.80511152744 0.47865918279 -0.35025826097 -0.97266256809 0.03696750477 0.22926169634
          -0.98555600643 -0.13966009021 0.09578281641 -0.29511013627 0.50869679451 -0.80878776312
          -0.79082536697 0.32012364268 -0.5216473937 -0.2947114706 0.21080395579 -0.93204444647
          -0.85612893105 0.064765997231 -0.51268768311 -0.98101717234 -0.15142984688 0.12113780528
          -0.99719059467 0.045544542372 0.059470105916 -0.77920132875 -0.053236979991 -0.62450873852
          -0.10555879772 0.082879029214 -0.99095332623 -0.11005034298 0.017894187942 -0.99376493692
          -0.81757611036 -0.052385736257 -0.57343268394 -0.9666338563 -0.075178653002 0.24488207698
          -0.97618365288 -0.15937809646 0.14718772471 -0.1883174777 0.010476945899 -0.98205238581
          -0.83133161068 -0.026002408937 -0.55516821146 -0.33929353952 -0.0041528297588 -0.94067138433
          -0.856151402 -0.1139434427 -0.50400578976 -0.96539390087 -0.24449676275 0.09075216949
          -0.9815299511 -0.056070987135 0.18290710449 -0.79787635803 -0.26298815012 -0.54243028164
          -0.21589744091 0.12012270093 -0.9689989686 -0.24210123718 0.32396611571 -0.91456711292
          -0.86396294832 -0.060354862362 -0.49992546439 -0.87365150452 -0.41316497326 0.25695866346
          -0.85543531179 -0.45316821337 0.25073692203 -0.89635413885 0.13872948289 -0.4210742116
          -0.31973135471 0.34646978974 -0.88189035654 -0.24971888959 0.22406859696 -0.94203704596
          -0.84805226326 0.15579046309 -0.5064945817 -0.97024524212 -0.045139826834 0.2378795445
          -0.94783633947 -0.16402956843 0.27331405878 -0.43942275643 0.044927731156 -0.89715617895
          -0.91294282675 0.012878265232 -0.40788429976 -0.29070177674 -0.076225221157 -0.95377266407
          -0.91534167528 -0.028653649613 -0.40165734291 -0.90617930889 -0.017850043252 0.42251679301
          -0.96519678831 -0.034454289824 0.25924536586 -0.39185577631 -0.062767997384 -0.91788297892
          -0.92081737518 -0.052396282554 -0.3864583075 -0.50428175926 -0.082176946104 -0.85962021351
          -0.93691295385 -0.17030440271 -0.30527129769 -0.92136907578 -0.19264602661 0.33758938313
          -0.93793153763 -0.067675992846 0.34015354514 -0.85391050577 -0.30749368668 -0.41986247897
          -0.35227429867 -0.050071071833 -0.93455648422 -0.36556500196 -0.031831089407 -0.93024140596
          -0.83627319336 -0.36098748446 -0.41271683574 -0.83672451973 -0.44394370914 0.32063376904
          -0.87815803289 -0.34754776955 0.32870817184 0.89622414112 -0.28650584817 -0.33866900206
          0.93269485235 0.14739304781 -0.32917413116 0.59433567524 -0.089983068407 -0.79916721582
          0.5997146368 0.33737966418 -0.72561514378 0.94030332565 0.21581374109 -0.26316192746
          0.60152757168 0.42152965069 -0.67858487368 0.97917509079 0.0075563169084 -0.20287695527
          0.54059565067 0.41182234883 -0.73359304667 0.96776717901 -0.063830412924 -0.24362351
          0.55133610964 0.41401177645 -0.72430855036 0.92694664001 0.083130188286 -0.36586788297
          0.44291356206 0.38838234544 -0.80807602406 0.96986824274 0.10560117662 -0.21955406666
          0.51684033871 0.22003190219 -0.82732218504 0.54020565748 0.14523649216 -0.82890546322
          0.97204703093 0.14549343288 -0.1842725873 0.99312371016 0.089188426733 -0.075833894312
          0.65277707577 0.070868313313 -0.75422799587 0.98317867517 0.034753616899 -0.17930939794
          0.56879377365 0.036670804024 -0.82166230679 0.95330774784 0.19377197325 -0.23163925111
          0.45619773865 0.15772502124 -0.87578910589 0.46463924646 0.41783639789 -0.78071963787
          0.88613188267 0.45835885406 -0.06839235127 0.94878953695 0.29345664382 -0.11696851254
          0.52435618639 0.45256793499 -0.72127175331 0.94474804401 0.15960446 -0.28631716967
          0.44342401624 0.35208898783 -0.8242623806 0.90376621485 0.084115043283 -0.41967990994
          0.42093750834 0.21782843769 -0.88054668903 0.91523450613 -0.07152787596 -0.39652198553
          0.32304865122 0.004096867051 -0.94637352228 0.96236461401 -0.13893590868 -0.23356182873
          0.51052731276 -0.11754105985 -0.85178989172 0.93346500397 -0.10731896013 -0.34223636985
          0.39194893837 -0.075735189021 -0.91686433554 0.93043768406 0.13310180604 -0.34142294526
          0.30609327555 0.054559390992 -0.95043689013 0.35742592812 0.2637181282 -0.89593499899
          0.82450389862 0.46769154072 -0.31852474809 0.79877465963 0.51536732912 -0.31041198969
          0.33217352629 0.3355088532 -0.88152968884 0.45130181313 -0.73404616117 0.50744748116
          0.3919980824 -0.73098009825 0.55857461691 0.85995155573 -0.47804558277 0.17876189947
          0.94915634394 -0.25295287371 0.18739563227 0.38106006384 -0.70539957285 0.59766608477
          0.92476218939 -0.25913843513 0.27867928147 0.35377267003 -0.66991734505 0.65272945166
          0.87078911066 -0.37523427606 0.31768792868 0.1209096089 -0.66365599632 0.73820161819
          0.7840681076 -0.49574878812 0.37345740199 0.20523820817 -0.53303611279 0.82082265615
          0.88324445486 -0.31934651732 0.34336137772 0.090255744755 -0.20523093641 0.97454303503
          0.8069575429 -0.055197883397 0.58802449703 0.24630224705 -0.038440093398 0.9684305191
          0.85106372833 0.078848399222 0.51910835505 0.27311861515 -0.0066031534225 0.9619577527
          0.81885963678 0.04369957 0.57232791185 0.8197337389 0.028148189187 0.57205271721
          0.15785911679 -0.0042488058098 0.98745256662 0.021715007722 -0.070593237877 0.99726879597
          0.77055317163 0.13973619044 0.62186956406 0.24070416391 -0.12828071415 0.96208399534
          0.75630754232 0.20150737464 0.62240952253 0.37310820818 -0.21004252136 0.90369927883
          0.85549628735 0.062598474324 0.51401120424 0.32991197705 -0.35391399264 0.87515878677
          0.90093463659 -0.1279142648 0.41467428207 0.37962600589 -0.31328460574 0.87048089504
          0.940279603 -0.14829209447 0.3064045608 0.88633203506 -0.14822252095 0.43868631124
          0.29188126326 -0.15837678313 0.94325089455 0.30019620061 -0.075770303607 0.95086342096
          0.88833379745 -0.11758936942 0.44388714433 0.89032763243 -0.071256712079 0.44971016049
          0.29231882095 -0.053671509027 0.95481365919 0.16590455174 -0.025507964194 0.98581194878
          0.84263193607 0.099145367742 0.5292840004 0.31162536144 0.071493908763 0.94751167297
          0.826125741 0.35143473744 0.44046553969 0.28901845217 0.11217993498 0.95072817802
          0.78822654486 0.43298619986 0.43728932738 -0.05296254158 -0.88920295238 0.45443716645
          -0.22115433216 -0.84731841087 0.48284819722 -0.34406635165 -0.778198421 0.52538144588
          -0.51087939739 -0.6028046608 0.61288565397 -0.55691659451 -0.47095644474 0.68413740396
          -0.63755267859 -0.35790628195 0.68222409487 -0.56103843451 -0.26417705417 0.78450399637
          -0.55921018124 -0.15185031295 0.81500029564 -0.47394785285 -0.059607390314 0.87853312492
          -0.58598577976 -0.038461748511 0.80940800905 -0.63476508856 -0.19078917801 0.7487809062
          -0.45427155495 -0.40884429216 0.79150730371 -0.33397716284 -0.44216558337 0.83243554831
          -0.4452765584 -0.37633919716 0.81246393919 -0.46308967471 -0.25252833962 0.84957486391
          -0.48471745849 -0.090898863971 0.86993473768 -0.37619584799 -0.032627284527 0.92596554756
          -0.45731371641 -0.044040031731 0.88821429014 -0.52228993177 -0.13495716453 0.84202128649
          -0.3922317028 -0.22614961863 0.89163374901 -0.38903787732 -0.26258987188 0.88300406933
          -0.037525899708 0.066581264138 0.99707508087 -0.14133889973 0.19866667688 0.96982204914
          0.18295566738 -0.68551391363 0.7046970129 0.018883315846 -0.038959890604 0.99906235933
          0.0076731843874 0.37547338009 0.9268014431 -0.048923697323 0.61303430796 0.78854012489
          0.43301796913 -0.8591722846 0.27261418104 0.65143740177 -0.45004972816 0.61080652475
          0.44175824523 -0.8614448905 -0.25052425265 0.92632526159 -0.33200767636 0.17802396417
          0.83414900303 0.33167406917 0.44066753983 0.60059803724 0.19711521268 0.77487272024
          0.89816063643 -0.4089422524 0.16147364676 0.51448768377 -0.83770418167 -0.18317803741
          0.39043533802 -0.8868368268 -0.24714522064 0.88198643923 -0.4411008954 0.16592179239
          0.82978844643 0.28981941938 0.47692340612 0.87811481953 0.20658949018 0.43154972792
          0.83596664667 -0.52300053835 0.16622358561 0.30009645224 -0.89795875549 -0.32188862562
          0.39803239703 -0.8740940094 -0.27844193578 0.84310793877 -0.48349913955 0.23536708951
          0.76047980785 0.21931654215 0.61120432615 0.79187685251 0.24927778542 0.55748701096
          0.56477665901 -0.81261634827 -0.14381232858 0.86851727962 -0.37001758814 0.32979509234
          0.43713563681 -0.85525131226 -0.27831205726 0.84357619286 -0.47171151638 0.25664663315
          0.75168895721 0.17895491421 0.63477474451 0.70224964619 0.30062618852 0.64534443617
          0.19043125212 0.93612653017 0.29564020038 0.82007706165 -0.34668758512 0.45528161526
          0.27299669385 -0.83202618361 0.48291322589 0.73970156908 -0.65948873758 -0.13385154307
          0.54416692257 -0.30607163906 -0.78115469217 0.39019113779 -0.92048227787 -0.021523669362
          -0.14303615689 -0.78737282753 -0.59965389967 -0.63997811079 -0.099668569863 -0.76190167665
          -0.86993378401 -0.22100365162 -0.44087713957 -0.34811741114 -0.78894603252 -0.50633829832
          -0.79961186647 -0.35807552934 -0.4820818305 -0.18152976036 -0.86382091045 -0.46995797753
          -0.82461506128 -0.28411963582 -0.48916882277 -0.30870202184 -0.8056486249 -0.50560200214
          -0.34548941255 -0.73724746704 -0.58060598373 -0.7917688489 -0.24999544024 -0.55731898546
          -0.76359438896 -0.2234313786 -0.60580694675 -0.25832417607 -0.74813067913 -0.61120313406
          -0.78614360094 -0.14984852076 -0.5996029377 -0.17822520435 -0.77687036991 -0.60391080379
          -0.73135775328 -0.22436267138 -0.6440320611 -0.1964764446 -0.73783415556 -0.64575362206
          0.61328554153 0.76714318991 0.18807482719 0.65773332119 0.72473323345 -0.20530118048
          0.99076992273 0.13138794899 0.033349636942 0.86776459217 0.062634073198 -0.49301278591
          0.40709617734 0.80020540953 -0.44039061666 0.41805011034 0.18135067821 -0.89013820887
          -0.80017322302 0.46324652433 -0.38095349073 -0.33009728789 0.94298481941 0.042607836425
          -0.36221051216 0.89490783215 0.26065993309 -0.87585443258 0.4657446146 -0.12633691728
          -0.44083496928 0.86948794127 0.22283473611 -0.89896607399 0.40336975455 -0.17074207962
          -0.47682777047 0.85511553288 0.20350120962 -0.90151923895 0.38515084982 -0.19728660583
          -0.56320095062 0.81494861841 0.13661447167 -0.89191365242 0.34655663371 -0.2904971242
          -0.48642212152 0.84953188896 0.20417912304 -0.860070467 0.42380562425 -0.2840205431
          -0.82092916965 0.53690725565 -0.19443757832 -0.37262696028 0.87645542622 0.30491808057
          -0.41293662786 0.8597638607 0.30048206449 -0.85328567028 0.44338682294 -0.27442988753
          0.18627864122 0.83127260208 0.52372342348 0.15652519464 0.93088394403 0.330083251
          -0.019561363384 0.79287022352 0.60907649994 0.18919049203 0.73116588593 0.65544140339
          0.34237623215 0.80899649858 0.47781088948 0.32484722137 0.80758774281 0.4922157526
          0.24791318178 0.83262354136 0.49525469542 0.15206161141 0.83457934856 0.52948528528
          0.19241730869 0.78370851278 0.59057307243 0.2117832303 0.76104038954 0.61316025257
          0.26587697864 0.70908862352 0.65307182074 0.77648389339 -0.34616175294 0.5265403986
          0.61113530397 -0.41705870628 0.67273747921 0.64509767294 -0.51088708639 0.56819313765
          0.82173663378 -0.53668749332 0.19161306322 0.39409348369 -0.84661740065 -0.35767221451
          0.78786402941 0.038727022707 0.61463040113 -0.63018983603 -0.31214243174 -0.71093451977
          -0.11549340189 -0.73522996902 -0.6679058075 -0.53590768576 0.80947303772 0.23990896344
          -0.85971134901 0.37820538878 -0.34330320358 0.20894381404 0.69401073456 0.68897861242
          0.37121158838 0.42748036981 0.82429516315 0.070486858487 0.92482876778 -0.37379601598
          0.3805026412 0.8738168478 -0.30275714397
        </DataArray>
        <DataArray type="Float32" Name="RTNeuron Opacity" format="ascii" RangeMin="0.028935780749" RangeMax="0.32211884856">
          0.32211884856 0.32211884856 0.32211884856 0.32211884856 0.32211884856 0.32211884856
          0.32211884856 0.32211884856 0.32211884856 0.32211884856 0.32211884856 0.32211884856
          0.32211884856 0.32211884856 0.32211884856 0.32211884856 0.32211884856 0.32211884856
          0.32211884856 0.32211884856 0.32211884856 0.32211884856 0.32211884856 0.32211884856
          0.32211884856 0.32211884856 0.32211884856 0.32211884856 0.32211884856 0.13610614836
          0.13412968814 0.099130436778 0.099130436778 0.099130436778 0.13623197377 0.092664733529
          0.092932395637 0.088042408228 0.08798391372 0.088118322194 0.092968910933 0.082391515374
          0.082431003451 0.077147006989 0.077147006989 0.077147006989 0.082663603127 0.077147006989
          0.077147006989 0.077147006989 0.077147006989 0.077147014439 0.077147006989 0.077146999538
          0.077147006989 0.077147006989 0.077147006989 0.077147006989 0.077147006989 0.077147006989
          0.077147006989 0.077147006989 0.077147014439 0.077147006989 0.077147014439 0.077147006989
          0.077147006989 0.077147006989 0.077147006989 0.077147006989 0.077147006989 0.066245362163
          0.065879374743 0.053826678544 0.053688973188 0.053547717631 0.065401367843 0.041166126728
          0.040989998728 0.029500300065 0.02909560129 0.028935780749 0.040920507163 0.034494370222
          0.034622915089 0.040953591466 0.040797624737 0.040728632361 0.034443661571 0.32211884856
          0.12489920855 0.15791592002 0.12861178815 0.099130436778 0.099130436778 0.094641283154
          0.093782193959 0.088620454073 0.088318958879 0.082970656455 0.08263591677 0.077146999538
          0.077147006989 0.077147006989 0.077147006989 0.077147006989 0.077147006989 0.077146999538
          0.077147006989 0.077147006989 0.077147006989 0.077147006989 0.077147006989 0.077146999538
          0.077147006989 0.077147006989 0.077147006989 0.077147006989 0.077147006989 0.065911337733
          0.066218912601 0.053816262633 0.053867932409 0.041485864669 0.041366964579 0.030234076083
          0.029961274937 0.034769438207 0.034856211394 0.041214391589 0.041121464223 0.32211884856
          0.27937066555 0.32211884856 0.12861178815 0.099130436778 0.099130436778 0.094677567482
          0.094943113625 0.088696196675 0.088754527271 0.083242148161 0.083202786744 0.077147006989
          0.077146999538 0.077147006989 0.077147006989 0.077146999538 0.077147006989 0.077147006989
          0.077147006989 0.077147006989 0.077147006989 0.077147006989 0.077147006989 0.077147006989
          0.077147006989 0.077147006989 0.077147014439 0.077147006989 0.077147006989 0.065433390439
          0.065066352487 0.053537324071 0.053675077856 0.041416432709 0.04124044627 0.029670821503
          0.030074793845 0.034677088261 0.034805539995 0.040989663452 0.041145510972 0.32211884856
          0.13610614836 0.099130436778 0.09383071959 0.088420055807 0.082998298109 0.077147006989
          0.077147006989 0.077147006989 0.077147006989 0.077147006989 0.077147014439 0.077147006989
          0.077147006989 0.077147014439 0.065092906356 0.053496018052 0.041039574891 0.029209455475
          0.034530520439 0.040821656585 0.30766841769 0.30470693111 0.11501418799 0.11279750615
          0.10488992184 0.29350239038 0.082849644125 0.082863084972 0.077147006989 0.077146999538
          0.077147006989 0.082853578031 0.077147014439 0.077147006989 0.077147006989 0.077147006989
          0.077147006989 0.077147006989 0.077147006989 0.077147006989 0.077146999538 0.077147006989
          0.077147014439 0.077147006989 0.077147006989 0.077147006989 0.077147006989 0.077146999538
          0.077147006989 0.077147006989 0.32211884856 0.32211884856 0.29817992449 0.095009170473
          0.097048483789 0.10793817788 0.082814544439 0.082780778408 0.077146999538 0.077147006989
          0.077147006989 0.077147006989 0.077147014439 0.077147006989 0.077146999538 0.077147006989
          0.077147006989 0.077147006989 0.077147006989 0.077147006989 0.077147006989 0.077147006989
          0.32211884856 0.079889178276 0.32211884856 0.080997563899 0.087281771004 0.089042119682
          0.082771271467 0.082784712315 0.077147006989 0.077147006989 0.077146999538 0.077147006989
          0.077147006989 0.077147006989 0.077147006989 0.077146999538 0.077146999538 0.077146999538
          0.077147006989 0.077147006989 0.077147006989 0.077147006989 0.32211884856 0.27456155419
          0.094630047679 0.082819812 0.077146999538 0.077147006989 0.077147006989 0.077147006989
          0.077147006989 0.077147006989 0.077147006989 0.32211884856 0.19257391989 0.32211884856
          0.077147006989 0.077146999538 0.077147006989 0.077147006989 0.077146999538 0.077147006989
          0.077147006989 0.077147006989 0.32211884856 0.32211884856 0.32211884856
        </DataArray>
        <DataArray type="Float32" Name="Voltage" format="ascii" RangeMin="-65" RangeMax="-65">
          -65 -65 -65 -65 -65 -65
          -65 -65 -65 -65 -65 -65
          -65 -65 -65 -65 -65 -65
          -65 -65 -65 -65 -65 -65
          -65 -65 -65 -65 -65 -65
          -65 -65 -65 -65 -65 -65
          -65 -65 -65 -65 -65 -65
          -65 -65 -65 -65 -65 -65
          -65 -65 -65 -65 -65 -65
          -65 -65 -65 -65 -65 -65
          -65 -65 -65 -65 -65 -65
          -65 -65 -65 -65 -65 -65
          -65 -65 -65 -65 -65 -65
          -65 -65 -65 -65 -65 -65
          -65 -65 -65 -65 -65 -65
          -65 -65 -65 -65 -65 -65
          -65 -65 -65 -65 -65 -65
          -65 -65 -65 -65 -65 -65
          -65 -65 -65 -65 -65 -65
          -65 -65 -65 -65 -65 -65
          -65 -65 -65 -65 -65 -65
          -65 -65 -65 -65 -65 -65
          -65 -65 -65 -65 -65 -65
          -65 -65 -65 -65 -65 -65
          -65 -65 -65 -65 -65 -65
          -65 -65 -65 -65 -65 -65
          -65 -65 -65 -65 -65 -65
          -65 -65 -65 -65 -65 -65
          -65 -65 -65 -65 -65 -65
          -65 -65 -65 -65 -65 -65
          -65 -65 -65 -65 -65 -65
          -65 -65 -65 -65 -65 -65
          -65 -65 -65 -65 -65 -65
          -65 -65 -65 -65 -65 -65
          -65 -65 -65 -65 -65 -65
          -65 -65 -65 -65 -65 -65
          -65 -65 -65 -65 -65 -65
          -65 -65 -65 -65 -65 -65
          -65 -65 -65 -65 -65 -65
          -65 -65 -65 -65 -65 -65
          -65 -65 -65 -65 -65 -65
          -65 -65 -65 -65 -65 -65
          -65 -65 -65 -65 -65 -65
          -65 -65 -65 -65 -65 -65
          -65 -65 -65 -65 -65 -65
          -65 -65 -65 -65 -65 -65
          -65 -65 -65 -65 -65 -65
          -65 -65 -65 -65 -65 -65
          -65 -65 -65 -65 -65
        </DataArray>
      </PointData>
      <CellData>
      </CellData>
      <Points>
        <DataArray type="Float32" Name="Points" NumberOfComponents="3" format="ascii" RangeMin="952.57997204" RangeMax="994.28749422">
          180.29090881 943.78198242 204.51499939 182.83514404 941.99182129 201.13511658
          180.72128296 941.99182129 202.51939392 183.74417114 941.99182129 196.31446838
          183.88606262 941.99182129 198.83724976 184.78799438 943.63146973 195.94848633
          184.96188354 943.63146973 199.04011536 182.27963257 941.99182129 194.25541687
          182.9932251 943.63146973 193.42515564 185.63244629 945.54614258 199.16656494
          185.43862915 945.54614258 195.72038269 185.66563416 947.59820557 195.64077759
          185.8664093 947.59820557 199.21069336 183.4380188 945.54614258 192.90765381
          183.59321594 947.59820557 192.72709656 185.43862915 949.65026855 195.72038269
          185.63244629 949.65026855 199.16656494 184.78799438 951.56494141 195.94848633
          184.96188354 951.56494141 199.04011536 183.4380188 949.65026855 192.90765381
          182.9932251 951.56494141 193.42515564 182.83514404 953.20458984 201.13511658
          180.72128296 953.20458984 202.51939392 183.74417114 953.20458984 196.31446838
          183.88606262 953.20458984 198.83724976 182.67851257 954.06976318 196.68809509
          182.53816223 954.40002441 198.322052 182.27963257 953.20458984 194.25541687
          181.54856873 954.40002441 195.49951172 180.80877686 938.51446533 195.13482666
          181.30561829 938.82232666 194.44822693 182.10951233 937.52856445 194.10592651
          181.74914551 937.31213379 194.4256134 181.64923096 937.14648438 194.97724915
          180.79393005 938.30712891 196.24803162 181.94290161 936.55560303 193.87031555
          182.24871826 936.70672607 193.66853333 182.05996704 936.06854248 193.15681458
          181.76979065 935.95983887 193.36061096 181.66674805 935.76934814 193.66046143
          181.82519531 936.37988281 194.20446777 181.88002014 935.32562256 192.59155273
          181.60954285 935.23962402 192.78823853 181.86462402 934.109375 192.10336304
          181.60969543 934.0390625 192.29188538 181.52600098 933.92541504 192.5811615
          181.51879883 935.07696533 193.07597351 181.91778564 932.00201416 192.01020813
          182.16952515 932.0512085 191.82289124 182.49780273 929.58648682 191.69761658
          182.24580383 929.54571533 191.88598633 182.15834045 929.51208496 192.18843079
          181.83299255 931.9375 192.3061676 182.55256653 927.1506958 191.67503357
          182.3057251 927.08703613 191.8618927 182.68434143 925.10540771 191.62995911
          182.44651794 925.00695801 191.81459045 182.36958313 924.94195557 192.11508179
          182.2205658 927.04803467 192.16539001 183.01716614 923.68621826 191.62065125
          183.24362183 923.81201172 191.4372406 183.81135559 922.75183105 191.06085205
          183.59336853 922.62213135 191.24911499 183.54576111 922.50946045 191.54153442
          182.95527649 923.59051514 191.91558838 183.75080872 921.31176758 190.66896057
          183.96846008 921.40606689 190.46479797 183.92480469 920.05267334 189.95544434
          183.71377563 920.00598145 190.16682434 183.67538452 919.94158936 190.46116638
          183.70913696 921.21466064 190.96759033 183.89025879 918.96954346 189.83920288
          183.70651245 918.95562744 190.02928162 183.86090088 918.03222656 189.92060852
          183.7146759 918.0335083 190.07443237 183.69010925 918.02868652 190.2850647
          183.67445374 918.92584229 190.28965759 183.83279419 917.11633301 190.00421143
          183.72389221 917.11236572 190.12033081 183.88426208 916.29992676 190.04391479
          183.80062866 916.27886963 190.13555908 183.78759766 916.27124023 190.26158142
          183.70610046 917.11169434 190.27940369 184.01130676 915.61956787 190.08869934
          184.09362793 915.66113281 189.99362183 184.38143921 915.11297607 189.89839172
          184.28448486 915.0647583 190.0113678 184.27105713 915.04730225 190.16854858
          183.99977112 915.6038208 190.2204895 182.87582397 940.48931885 196.38531494
          182.75158691 938.98638916 195.7280426 181.81419373 940.48455811 194.88191223
          182.1138916 938.96728516 194.78816223 182.89086914 937.6463623 194.80178833
          182.5769043 937.64538574 194.30863953 182.8130188 936.63275146 194.06570435
          182.60145569 936.72424316 193.77780151 182.62136841 935.82324219 193.44494629
          182.40620422 935.99578857 193.2169342 182.41923523 935.09564209 192.8646698
          182.20982361 935.2520752 192.64736938 182.37831116 933.97967529 192.40567017
          182.17790222 934.07519531 192.17488098 182.47599792 932.04705811 191.9052887
          182.67030334 932.00506592 192.14877319 182.99137878 929.60803223 192.03987122
          182.80117798 929.60961914 191.78694153 183.03767395 927.22460938 192.02487183
          182.85046387 927.20477295 191.76821899 183.16705322 925.20568848 191.97756958
          182.97814941 925.18280029 191.72290039 183.5385437 923.89398193 191.52478027
          183.73735046 923.90209961 191.77177429 184.32249451 922.80310059 191.37333679
          184.1111908 922.81787109 191.13699341 184.49636841 921.39794922 190.74815369
          184.27563477 921.43389893 190.52267456 184.44273376 919.99975586 190.2043457
          184.2253418 920.04473877 189.99560547 184.34532166 918.92181396 190.05004883
          184.15376282 918.95294189 189.86955261 184.22584534 918.01391602 190.09103394
          184.07183838 918.02362061 189.94508362 184.10606384 917.12591553 190.13308716
          183.99053955 917.12188721 190.02278137 184.09605408 916.34014893 190.14703369
          184.00627136 916.3248291 190.0592041 184.21543884 915.70947266 190.01086426
          184.30596924 915.73876953 190.10372925 184.63208008 915.20532227 190.0309906
          184.52516174 915.17010498 189.91966248 181.93789673 940.39599609 199.96237183
          182.23991394 938.74609375 197.52783203 182.95950317 940.47186279 198.2177124
          182.73674011 938.91650391 196.8412323 182.43058777 937.33300781 195.6730957
          182.79095459 937.51507568 195.35342407 182.38951111 936.3059082 194.60163879
          182.6953125 936.45697021 194.39987183 182.22816467 935.52404785 193.94859314
          182.51834106 935.6328125 193.74479675 182.05801392 934.84698486 193.34910583
          182.32849121 934.9329834 193.15240479 182.03968811 933.79571533 192.88346863
          182.29460144 933.86608887 192.69496155 182.33378601 931.89141846 192.63204956
          182.58551025 931.94055176 192.44473267 182.6519165 929.53363037 192.53068542
          182.90391541 929.57440186 192.34231567 182.95252991 927.18554688 192.32835388
          182.70567322 927.12188721 192.51522827 182.85229492 925.04217529 192.46269226
          183.09011841 925.140625 192.27806091 183.44900513 923.68060303 192.25010681
          183.67547607 923.80633545 192.06669617 184.05690002 922.56079102 191.85401917
          184.27488708 922.69049072 191.66575623 184.23704529 921.20654297 191.2509613
          184.45469666 921.30090332 191.04678345 184.19329834 919.88867188 190.71008301
          184.40434265 919.93536377 190.498703 184.31326294 918.89196777 190.3104248
          184.1295166 918.87805176 190.50050354 184.05506897 918.01037598 190.45549011