<VTKFile type="PolyData" version="1.0" byte_order="LittleEndian" header_type="UInt64">
  <PolyData>
    <Piece NumberOfPoints="1129" NumberOfVerts="0" NumberOfLines="0" NumberOfStrips="0" NumberOfPolys="2194">
      <PointData Normals="Normal">
        <DataArray type="Int32" Name="Section Id" format="ascii" RangeMin="0" RangeMax="82">
          47 47 47 47 47 47
          47 47 47 47 47 47
          47 48 48 48 55 55
          47 55 55 55 55 55
          55 55 55 55 55 55
          55 47 47 47 47 47
          47 47 47 47 47 48
          55 48 55 55 55 55
          55 55 55 47 47 47
          47 47 47 47 47 47
          47 47 47 55 55 48
          55 55 55 55 55 55
          55 55 47 47 47 47
          47 55 55 55 55 55
          59 59 59 59 59 59
          0 68 68 68 68 68
          68 0 68 68 69 69
          69 69 69 82 82 82
          69 69 82 82 82 82
          82 82 82 68 68 68
          68 69 68 68 69 69
          69 82 69 82 82 82
          82 82 0 68 68 68
          69 69 69 69 69 69
          69 69 82 69 69 82
          82 82 82 82 82 82
          82 82 0 68 68 69
          69 69 69 69 69 69
          82 82 82 82 82 82
          0 0 0 0 0 48
          48 48 48 48 48 48
          49 52 52 52 49 52
          52 52 52 52 52 48
          48 48 48 48 48 52
          52 52 52 52 52 48
          48 48 48 48 49 52
          52 52 52 52 52 48
          48 52 52 52 49 49
          49 49 49 49 49 49
          49 49 49 49 49 49
          49 49 49 49 49 49
          49 49 49 49 49 49
          49 49 49 49 49 49
          49 49 49 49 49 49
          49 49 49 49 49 49
          49 49 49 49 49 49
          49 49 49 69 69 69
          69 69 69 69 69 69
          69 69 69 69 69 69
          69 1 1 1 1 1
          1 1 1 1 1 1
          1 1 1 1 1 1
          1 1 1 1 1 1
          1 1 1 1 1 1
          1 1 1 1 1 1
          1 1 1 1 1 1
          1 1 1 1 1 1
          1 1 1 1 1 1
          1 1 1 1 1 1
          1 0 1 1 1 1
          1 1 1 1 1 1
          1 1 1 1 1 1
          1 1 1 1 1 1
          1 1 1 1 1 1
          1 1 1 1 1 1
          1 1 1 1 1 1
          1 0 0 0 1 1
          1 1 1 1 1 1
          1 1 1 1 1 1
          1 1 1 1 1 1
          1 1 1 1 1 1
          1 1 1 1 1 1
          1 1 1 1 1 1
          1 1 1 0 1 1
          1 1 1 1 1 1
          1 1 1 1 1 1
          1 1 1 1 44 44
          0 0 44 0 44 44
          44 44 44 44 44 44
          44 44 44 44 44 44
          44 44 44 44 44 44
          44 44 44 44 44 44
          0 0 0 44 44 44
          44 44 44 44 44 44
          44 44 44 44 44 44
          44 44 44 44 44 44
          44 0 44 0 44 44
          44 44 44 44 44 44
          44 44 44 44 44 44
          44 44 44 44 44 44
          44 0 0 44 44 44
          44 44 44 44 44 44
          44 0 0 0 0 0
          0 0 0 0 0 0
          0 0 0 0 0 0
          0 0 0 0 0 0
          0 0 0 0 0 0
          0 0 0 0 0 0
          0 0 47 47 47 0
          47 47 47 47 47 47
          47 47 47 47 47 47
          47 47 47 47 47 47
          47 47 47 47 47 47
          47 47 47 47 47 47
          47 0 0 0 47 47
          47 47 47 47 47 47
          47 47 47 47 47 0
          47 47 47 47 47 47
          47 0 0 0 58 58
          58 58 58 0 58 58
          58 58 58 58 58 58
          58 58 58 58 58 58
          58 58 58 58 58 58
          58 58 58 58 58 58
          58 58 58 58 58 58
          58 58 58 58 58 58
          58 58 58 58 58 58
          58 0 0 0 0 58
          58 58 58 58 58 58
          58 58 58 58 58 58
          58 58 58 58 58 58
          58 58 58 58 58 58
          58 58 58 58 58 58
          58 0 0 0 58 58
          58 58 58 58 58 58
          58 58 58 58 58 58
          58 58 58 58 58 58
          58 58 58 58 58 58
          58 58 58 58 58 58
          58 0 58 58 58 58
          58 58 58 58 58 58
          58 58 58 58 58 58
          58 0 59 0 59 59
          59 59 59 59 59 59
          0 0 0 59 59 59
          59 59 59 0 0 59
          59 59 59 59 59 59
          59 59 59 59 0 0
          0 0 0 0 0 0
          0 0 0 0 0 0
          0 0 0 0 0 0
          0 0 0 0 0 0
          0 0 0 0 0 0
          0 0 0 0 0 0
          0 0 0 0 0 65
          65 44 44 44 44 44
          44 44 44 44 44 44
          44 44 44 44 44 44
          44 44 44 44 44 44
          44 44 44 44 44 44
          44 44 44 44 44 44
          44 44 44 44 44 44
          44 44 44 44 44 44
          44 44 44 44 44 44
          44 44 44 44 44 44
          44 44 44 44 44 44
          44 44 44 44 44 44
          44 44 44 44 44 44
          44 44 44 44 44 44
          44 44 44 44 44 44
          44 44 44 44 44 44
          44 44 44 44 44 44
          44 44 44 44 44 44
          44 44 44 44 44 44
          44 44 44 44 44 44
          44 44 44 44 44 44
          44 44 44 44 44 44
          44 44 44 44 44 44
          44 44 44 44 44 44
          44 44 44 44 44 44
          44 44 44 44 44 44
          44 44 44 44 44 44
          44 44 44 44 44 44
          44 44 44 44 44 44
          44 44 44 44 44 44
          44 44 44 44 44 44
          44 44 44 44 44 44
          0 82 82 82 82 82
          82 82 82 82 82 82
          82 82 82 82 82 82
          82 82 82 82 82 82
          82 82 82 82 82 82
          82 82 82 82 82 82
          82 82 82 82 82 82
          82 82 82 82 82 82
          82 82 82 82 82 82
          82 82 82 82 82 82
          82 82 82 82 82 82
          82
        </DataArray>
        <DataArray type="Float32" Name="Normal" NumberOfComponents="3" format="ascii" RangeMin="0.99999993501" RangeMax="1.0000000956">
          -0.39319565892 -0.59039229155 0.70486468077 0.0077965739183 -0.008888669312 0.99993014336
          -0.010155944154 0.00264493539 0.99994492531 -0.01579667069 0.079314477742 0.99672448635
          -0.44004544616 -0.55802977085 0.70353597403 -0.59554195404 -0.80077934265 -0.063893564045
          -0.55831307173 -0.82962477207 -0.0030201850459 -0.17056156695 -0.27320444584 0.94671446085
          -0.4795947969 -0.56769949198 0.66910845041 -0.17600291967 -0.84176790714 0.51034283638
          -0.48040723801 -0.64922595024 0.58967328072 -0.62549936771 -0.77272212505 0.10794071853
          -0.62521463633 -0.77796500921 0.062266401947 -0.58310997486 -0.72787725925 0.36080116034
          -0.49515101314 -0.85135179758 0.17327907681 -0.75347369909 -0.58135008812 0.30709847808
          -0.62413674593 -0.60850244761 0.49007970095 -0.61529308558 -0.78620809317 0.057369232178
          -0.61484289169 -0.77133405209 0.16435357928 -0.50171983242 -0.21299433708 0.83839762211
          -0.55103462934 -0.4761428833 0.68530935049 -0.16928787529 0.11454567313 0.97888761759
          -0.57103842497 -0.5333147049 0.62409186363 -0.58724194765 -0.80711263418 -0.06096028164
          -0.60548299551 -0.79583179951 -0.0064949360676 -0.52681660652 -0.49694085121 0.68957525492
          -0.13486738503 0.088493123651 0.98690414429 -0.10894612968 0.068641521037 0.99167490005
          -0.48830971122 -0.52399641275 0.69784063101 -0.5356105566 -0.84443175793 0.0075147012249
          -0.54686063528 -0.83164352179 -0.096501283348 0.3877017796 0.58863228559 0.7093654871
          0.54049623013 0.84134018421 0.003262917744 0.37099632621 0.59913885593 0.70950293541
          0.52242726088 0.85267668962 0.0035049144644 0.48623260856 0.87382042408 0.0039707412943
          0.34575811028 0.6604218483 0.66655409336 0.46283850074 0.88420510292 -0.062942743301
          0.40921938419 0.60761016607 0.68069773912 0.57631599903 0.81365734339 -0.07630059123
          0.77196407318 0.20747807622 0.60085308552 0.53919959068 0.83644545078 -0.098096355796
          0.58101892471 0.81310427189 0.03575738892 -0.20022906363 0.81245982647 0.54755586386
          0.20417094231 0.6544585824 0.72800981998 0.63131964207 0.77118593454 -0.081901080906
          0.35469120741 0.6799518466 0.64176291227 0.33032941818 0.62642043829 0.70603120327
          0.64874702692 0.76063853502 0.02358652465 0.6727617979 0.7392244935 0.03064074181
          0.3665125072 0.59630650282 0.71420389414 0.37667572498 0.6012031436 -0.7047483325
          -0.0077969036065 0.0088887996972 -0.99993014336 0.35999169946 0.61177355051 -0.70437145233
          -0.025763226673 0.020428862423 -0.99945932627 -0.061068080366 0.043118223548 -0.99720185995
          0.31071722507 0.64091354609 -0.70191502571 -0.094258226454 0.064768366516 -0.9934387207
          0.27286660671 0.62455457449 -0.73176193237 -0.092467553914 0.064648061991 -0.99361479282
          0.36554798484 0.76088237762 -0.53612756729 0.067635171115 -0.043454475701 -0.99676334858
          0.53441852331 0.74128443003 -0.40607181191 0.17296375334 -0.1172009483 -0.97793018818
          0.61343634129 0.62596738338 -0.48151922226 0.4710200429 0.86028581858 -0.19506031275
          0.5559450388 0.47746536136 -0.68040573597 0.17964571714 -0.12267816067 -0.97605198622
          0.1902218312 -0.13091702759 -0.97297298908 0.53490161896 0.4152020812 -0.73585832119
          0.58238106966 0.45442372561 -0.674041152 0.22111424804 -0.15465594828 -0.96290707588
          0.24609574676 -0.17385435104 -0.95352584124 0.61767375469 0.42475888133 -0.66186028719
          -0.40425404906 -0.57788264751 -0.70896422863 -0.42637622356 -0.51154863834 -0.74600362778
          -0.48475572467 -0.55716264248 -0.67422670126 -0.49131900072 -0.57691144943 -0.65251737833
          -0.42004725337 -0.66076600552 -0.62205201387 -0.33172518015 -0.66616517305 -0.66796886921
          -0.30347362161 -0.64998668432 -0.69672173262 -0.27441418171 -0.63727110624 -0.72012668848
          -0.22686356306 -0.6295222044 -0.74312502146 -0.2371481061 -0.69554227591 -0.6782194972
          0.126040712 0.66535806656 0.73580735922 0.3060580492 0.43778201938 0.84538477659
          -0.48956009746 0.16874748468 0.8554853797 -0.36747375131 0.0048280879855 0.93002140522
          -0.668623209 -0.32262060046 0.6699693799 0.66690438986 0.73049759865 0.14700976014
          0.37121158838 0.42748036981 0.82429516315 0.91424649954 0.27854058146 0.29422518611
          0.30516716838 0.2613645792 0.91573005915 0.98807501793 0.10429614037 0.11326985806
          0.44629964232 0.18970192969 0.87454551458 -0.15874351561 0.26203876734 0.95191180706
          -0.15082040429 0.33078029752 0.93157804012 -0.15351173282 0.4613506794 0.87383621931
          0.45208078623 0.092783607543 0.88713824749 0.96202927828 -0.021516488865 0.27209702134
          0.91550010443 -0.12176029384 0.3834502697 0.40536534786 0.040469810367 0.91325861216
          -0.32436707616 0.17023853958 0.93048638105 -0.18594868481 0.19216313958 0.96358525753
          0.52563136816 0.027240224183 0.85027623177 0.95427000523 -0.15223111212 0.25728297234
          0.92697203159 -0.13510529697 0.34995654225 0.42424234748 0.074859499931 0.90244925022
          -0.32717365026 0.24120391905 0.91366189718 -0.24788856506 0.19788347185 0.94836360216
          0.92615371943 -0.13868060708 0.35072353482 0.42596173286 0.09661013633 0.89956825972
          -0.32741478086 0.29997366667 0.89599967003 -0.32471942902 0.27467602491 0.90504717827
          0.37548065186 0.12677894533 0.91811847687 -0.43628078699 0.34627386928 0.83051401377
          0.40710660815 0.12847027183 0.90430063009 0.10463218391 0.67526787519 -0.7301132679
          0.27651122212 0.090784840286 -0.9567130208 0.67786419392 0.53996139765 -0.49894082546
          0.7702203393 0.11384046078 -0.62753564119 0.29612576962 -0.098094254732 -0.95009845495
          0.743737638 -0.038976024836 -0.66733443737 0.81958115101 -0.12276221812 -0.55965721607
          0.56531083584 -0.095841102302 -0.81929129362 0.96545213461 -0.013107541017 0.2602507174
          0.83859241009 -0.22593531013 -0.49569743872 0.85784012079 -0.2723030448 -0.43584570289
          0.44237482548 -0.27798512578 -0.85265988111 0.29307901859 -0.23695260286 -0.92626029253
          0.87035924196 -0.26486247778 -0.41511768103 0.28069061041 -0.26939243078 -0.92121684551
          0.8539019227 -0.31775671244 -0.41216772795 0.86282426119 -0.29206040502 -0.41259554029
          -0.75306785107 0.65122240782 0.093798920512 -0.86806708574 0.49632176757 0.011145623401
          -0.44680222869 0.67790800333 -0.58378815651 -0.38415271044 0.23501318693 -0.89285808802
          -0.97897946835 0.19886809587 0.045284647495 -0.3351328373 -0.060190059245 -0.94024634361
          0.032025709748 0.19293160737 0.980689466 -0.91731059551 0.39466693997 0.052719816566
          0.40422073007 0.11224872619 0.90774768591 -0.38496959209 -0.032191600651 -0.92236769199
          -0.90045434237 0.118614465 -0.41846469045 -0.3834875524 -0.092231929302 -0.91892910004
          -0.45573744178 -0.089904427528 -0.88556230068 -0.92696082592 0.14195798337 -0.34726306796
          -0.92411398888 0.15294034779 -0.35017517209 -0.46344190836 -0.097873993218 -0.88070559502
          0.265884161 -0.29284313321 -0.91844904423 -0.53417766094 -0.059537440538 -0.84327310324
          -0.93972170353 0.20669876039 -0.27239450812 -0.87875533104 0.17268502712 -0.44493696094
          -0.39872640371 -0.089096978307 -0.91273158789 -0.90307825804 0.22000989318 -0.36884322762
          -0.90090942383 0.22583171725 -0.37062400579 -0.43013831973 -0.059455007315 -0.90080308914
          -0.57707065344 0.51549035311 0.6334503293 -0.57015830278 0.41078919172 0.71145749092
          -0.64600372314 0.34170299768 0.68258208036 -0.66362738609 0.22463493049 0.71353906393
          -0.62818050385 0.24876900017 0.73722684383 -0.66501057148 0.12080546468 0.73699867725
          -0.77509528399 0.29719516635 0.55758625269 -0.87950509787 0.26579678059 0.39474418759
          -0.8752643466 0.2911708951 0.3861759901 -0.87233322859 0.31352290511 0.37515097857
          -0.88461798429 0.33576160669 0.32359740138 -0.84420013428 0.38187411427 0.37616255879
          -0.27533757687 0.37113496661 0.88681906462 -0.83866673708 0.39848226309 0.37128144503
          -0.27321898937 0.37698101997 0.88500660658 -0.83771240711 0.4012323916 0.37047350407
          0.18345488608 0.6489136219 0.73841416836 -0.24055321515 0.88367199898 -0.40156939626
          0.070486858487 0.92482876778 -0.37379601598 0.65184473991 0.75833028555 0.0058022323065
          0.3805026412 0.8738168478 -0.30275714397 0.36313042045 -0.89382064342 0.26309892535
          -0.10867889971 -0.97769844532 0.17970749736 0.62997168303 -0.72945821285 0.266507864
          -0.005625479389 -0.9758939743 0.21817292273 -0.29422959685 -0.95518130064 0.032522894442
          -0.69113218784 -0.72099721432 0.049993690103 0.56273210049 -0.56218135357 0.60604029894
          0.0030940070283 -0.80299830437 0.59597325325 0.41171887517 -0.2329210639 0.88104224205
          -0.17661695182 -0.62443161011 0.76084935665 -0.53093630075 -0.67322909832 0.51465451717
          -0.12322281301 -0.86797791719 0.48107224703 0.35626196861 -0.17358827591 0.91812008619
          -0.18141256273 -0.59270650148 0.78472197056 0.34525623918 -0.16190852225 0.92443698645
          -0.25814726949 -0.6180961132 0.74250733852 -0.70538592339 -0.69948345423 0.11468973011
          -0.64022094011 -0.71576106548 0.27893236279 0.69588619471 0.71188217402 -0.094690151513
          0.95157653093 -0.20674656332 0.22750379145 0.75917232037 0.64007818699 -0.11814151704
          0.99172097445 -0.043767336756 0.12072302401 0.78354036808 0.62124896049 -0.010690072551
          0.89326232672 0.064293265343 0.44491443038 0.70585018396 0.70598846674 -0.057929880917
          0.73759132624 0.31068515778 0.59952807426 0.72835892439 0.37525761127 0.57330191135
          0.68979841471 0.7140353322 -0.11971535534 0.6885342598 0.70681929588 -0.16225647926
          0.740475595 0.39249071479 0.54557031393 -0.12870267034 0.97102874517 -0.2013425529
          0.22484558821 0.94560301304 -0.23511572182 -0.34084537625 0.80639749765 -0.4832675457
          0.10943177342 0.95724403858 -0.26778465509 0.19036793709 0.84969484806 -0.4917100966
          -0.007581083104 0.81376183033 -0.58114916086 -0.28791940212 0.44156333804 -0.84977895021
          0.20623196661 0.64233112335 -0.7381592989 -0.33130118251 0.20511941612 -0.92095905542
          0.28762808442 0.64376622438 -0.70910871029 -0.34533452988 0.16054096818 -0.92464625835
          0.23609681427 0.60187220573 -0.76289451122 -0.99956065416 0.0094288848341 0.028100062162
          -0.91042858362 -0.054566059262 -0.41005185246 -0.86515808105 -0.2431486696 -0.43861174583
          -0.76389890909 -0.4120657444 -0.49664905667 -0.73263931274 -0.37179216743 -0.57009667158
          -0.39789095521 -0.60298842192 0.69143891335 -0.0092878947034 -0.98280954361 0.18438884616
          -0.26988711953 -0.75652986765 0.59567070007 0.1509001106 -0.9880310297 -0.031999088824
          0.51029914618 -0.59738236666 -0.61865103245 0.18938392401 -0.80925291777 -0.55609673262
          -0.19544698298 -0.87216824293 0.44846746325 0.19231079519 -0.9671959281 -0.16597789526
          -0.23461024463 -0.84291225672 0.48420757055 0.17161761224 -0.97351306677 -0.15106227994
          0.45283219218 -0.61193186045 -0.64844614267 0.5051651001 -0.47565287352 -0.72011291981
          0.16942547262 -0.97367960215 -0.1524567157 -0.23621295393 -0.84298533201 0.48330038786
          -0.25859540701 -0.81697243452 0.51544606686 0.14267811179 -0.98334980011 -0.11254408956
          0.47381693125 -0.53417181969 -0.70011287928 0.49711510539 -0.44712719321 -0.74360871315
          -0.15750847757 -0.91912508011 0.36110970378 0.21662892401 -0.94431447983 -0.24767334759
          0.46616470814 -0.5347096324 -0.70482349396 -0.52196788788 0.85283601284 0.01484404318
          -0.75153642893 0.015864567831 0.65950083733 -0.43240141869 0.62500160933 0.64992469549
          -0.5012767911 -0.074507527053 0.86207318306 -0.50546896458 0.39827981591 0.76542431116
          -0.47921565175 -0.31229665875 0.82025796175 -0.46528613567 0.57440274954 0.67347633839
          -0.5115531683 -0.16919241846 0.8424294591 -0.50346302986 -0.21853625774 0.83592283726
          -0.47580116987 0.53402423859 0.6988786459 -0.48469185829 0.49382638931 0.72194826603
          -0.5024317503 -0.21838609874 0.83658230305 -0.49978384376 -0.21823140979 0.83820718527
          0.28583753109 0.64147651196 -0.71190232038 -0.025803452358 0.99395167828 -0.10674416274
          0.31678584218 0.75490868092 -0.57424706221 -0.13694283366 0.98757648468 0.077067688107
          0.26273089647 0.80731457472 -0.52840870619 -0.18907599151 0.96696847677 0.17094507813
          0.2112185508 0.86791229248 -0.44957211614 -0.17161540687 0.973513484 0.1510617286
          -0.19311144948 0.96226716042 0.1917026937 0.18807630241 0.89174121618 -0.41161262989
          0.28196337819 0.78689801693 -0.54889732599 -0.15009698272 0.98078119755 0.12465590984
          0.30534601212 0.040611688048 -0.95137512684 0.56652551889 0.12542627752 -0.8144428134
          0.51706302166 0.17720019817 -0.83740437031 0.50849294662 0.18724647164 -0.84046047926
          0.49473387003 0.26476553082 -0.82773041725 0.50242686272 0.21839049459 -0.83658409119
          0.49516165257 0.21784515679 -0.84104609489 0.74880057573 0.077677585185 0.65822792053
          0.3115504384 0.084765806794 0.94644129276 0.77514380217 0.016444325447 0.63157081604
          0.34212732315 0.075238473713 0.93663662672 -0.27715790272 0.056421689689 0.95916634798
          -0.09256862849 0.086851209402 0.99191129208 0.13967232406 -0.12583087385 -0.98217022419
          0.88365906477 -0.024123854935 -0.4675090313 0.16103237867 -0.16681443155 -0.97274947166
          0.93114256859 -0.068188995123 -0.35822311044 -0.86454021931 -0.089926294982 -0.49445283413
          -0.37483841181 -0.12879824638 -0.91809976101 -0.9146617651 -0.10071078688 -0.39147305489
          -0.38813823462 -0.14176721871 -0.91063207388 -0.87746423483 0.0090949675068 0.47955590487
          -0.90637010336 -0.010404207744 0.42235654593 -0.067376427352 0.34611028433 -0.9357714057
          -0.82329750061 -0.17404209077 -0.54026901722 -0.090137809515 -0.023034060374 -0.99566292763
          -0.72835922241 -0.54413998127 -0.41641873121 -0.82748478651 -0.55927413702 0.049813229591
          -0.61251378059 -0.78097784519 0.12206754088 -0.80772089958 0.3581417799 -0.46831765771
          -0.14218652248 0.54861408472 -0.8238966465 -0.20301556587 0.63979828358 -0.74124413729
          -0.80511152744 0.47865918279 -0.35025826097 -0.97266256809 0.03696750477 0.22926169634
          -0.98555600643 -0.13966009021 0.09578281641 -0.29511013627 0.50869679451 -0.80878776312
          -0.79082536697 0.32012364268 -0.5216473937 -0.2947114706 0.21080395579 -0.93204444647
          -0.85612893105 0.064765997231 -0.51268768311 -0.98101717234 -0.15142984688 0.12113780528
          -0.99719059467 0.045544542372 0.059470105916 -0.77920132875 -0.053236979991 -0.62450873852
          -0.10555879772 0.082879029214 -0.99095332623 -0.11005034298 0.017894187942 -0.99376493692
          -0.81757611036 -0.052385736257 -0.57343268394 -0.9666338563 -0.075178653002 0.24488207698
          -0.97618365288 -0.15937809646 0.14718772471 -0.1883174777 0.010476945899 -0.98205238581
          -0.83133161068 -0.026002408937 -0.55516821146 -0.33929353952 -0.0041528297588 -0.94067138433
          -0.856151402 -0.1139434427 -0.50400578976 -0.96539390087 -0.24449676275 0.09075216949
          -0.9815299511 -0.056070987135 0.18290710449 -0.79787635803 -0.26298815012 -0.54243028164
          -0.21589744091 0.12012270093 -0.9689989686 -0.24210123718 0.32396611571 -0.91456711292
          -0.86396294832 -0.060354862362 -0.49992546439 -0.87365150452 -0.41316497326 0.25695866346
          -0.85543531179 -0.45316821337 0.25073692203 -0.89635413885 0.13872948289 -0.4210742116
          -0.31973135471 0.34646978974 -0.88189035654 -0.24971888959 0.22406859696 -0.94203704596
          -0.84805226326 0.15579046309 -0.5064945817 -0.97024524212 -0.045139826834 0.2378795445
          -0.94783633947 -0.16402956843 0.27331405878 -0.43942275643 0.044927731156 -0.89715617895
          -0.91294282675 0.012878265232 -0.40788429976 -0.29070177674 -0.076225221157 -0.95377266407
          -0.91534167528 -0.028653649613 -0.40165734291 -0.90617930889 -0.017850043252 0.42251679301
          -0.96519678831 -0.034454289824 0.25924536586 -0.39185577631 -0.062767997384 -0.91788297892
          -0.92081737518 -0.052396282554 -0.3864583075 -0.50428175926 -0.082176946104 -0.85962021351
          -0.93691295385 -0.17030440271 -0.30527129769 -0.92136907578 -0.19264602661 0.33758938313
          -0.93793153763 -0.067675992846 0.34015354514 -0.85391050577 -0.30749368668 -0.41986247897
          -0.35227429867 -0.050071071833 -0.93455648422 -0.36556500196 -0.031831089407 -0.93024140596
          -0.83627319336 -0.36098748446 -0.41271683574 -0.83672451973 -0.44394370914 0.32063376904
          -0.87815803289 -0.34754776955 0.32870817184 0.89622414112 -0.28650584817 -0.33866900206
          0.93269485235 0.14739304781 -0.32917413116 0.59433567524 -0.089983068407 -0.79916721582
          0.5997146368 0.33737966418 -0.72561514378 0.94030332565 0.21581374109 -0.26316192746
          0.60152757168 0.42152965069 -0.67858487368 0.97917509079 0.0075563169084 -0.20287695527
          0.54059565067 0.41182234883 -0.73359304667 0.96776717901 -0.063830412924 -0.24362351
          0.55133610964 0.41401177645 -0.72430855036 0.92694664001 0.083130188286 -0.36586788297
          0.44291356206 0.38838234544 -0.80807602406 0.96986824274 0.10560117662 -0.21955406666
          0.51684033871 0.22003190219 -0.82732218504 0.54020565748 0.14523649216 -0.82890546322
          0.97204703093 0.14549343288 -0.1842725873 0.99312371016 0.089188426733 -0.075833894312
          0.65277707577 0.070868313313 -0.75422799587 0.98317867517 0.034753616899 -0.17930939794
          0.56879377365 0.036670804024 -0.82166230679 0.95330774784 0.19377197325 -0.23163925111
          0.45619773865 0.15772502124 -0.87578910589 0.46463924646 0.41783639789 -0.78071963787
          0.88613188267 0.45835885406 -0.06839235127 0.94878953695 0.29345664382 -0.11696851254
          0.52435618639 0.45256793499 -0.72127175331 0.94474804401 0.15960446 -0.28631716967
          0.44342401624 0.35208898783 -0.8242623806 0.90376621485 0.084115043283 -0.41967990994
          0.42093750834 0.21782843769 -0.88054668903 0.91523450613 -0.07152787596 -0.39652198553
          0.32304865122 0.004096867051 -0.94637352228 0.96236461401 -0.13893590868 -0.23356182873
          0.51052731276 -0.11754105985 -0.85178989172 0.93346500397 -0.10731896013 -0.34223636985
          0.39194893837 -0.075735189021 -0.91686433554 0.93043768406 0.13310180604 -0.34142294526
          0.30609327555 0.054559390992 -0.95043689013 0.35742592812 0.2637181282 -0.89593499899
          0.82450389862 0.46769154072 -0.31852474809 0.79877465963 0.51536732912 -0.31041198969
          0.33217352629 0.3355088532 -0.88152968884 0.45130181313 -0.73404616117 0.50744748116
          0.3919980824 -0.73098009825 0.55857461691 0.85995155573 -0.47804558277 0.17876189947
          0.94915634394 -0.25295287371 0.18739563227 0.38106006384 -0.70539957285 0.59766608477
          0.92476218939 -0.25913843513 0.27867928147 0.35377267003 -0.66991734505 0.65272945166
          0.87078911066 -0.37523427606 0.31768792868 0.1209096089 -0.66365599632 0.73820161819
          0.7840681076 -0.49574878812 0.37345740199 0.20523820817 -0.53303611279 0.82082265615
          0.88324445486 -0.31934651732 0.34336137772 0.090255744755 -0.20523093641 0.97454303503
          0.8069575429 -0.055197883397 0.58802449703 0.24630224705 -0.038440093398 0.9684305191
          0.85106372833 0.078848399222 0.51910835505 0.27311861515 -0.0066031534225 0.9619577527
          0.81885963678 0.04369957 0.57232791185 0.8197337389 0.028148189187 0.57205271721
          0.15785911679 -0.0042488058098 0.98745256662 0.021715007722 -0.070593237877 0.99726879597
          0.77055317163 0.13973619044 0.62186956406 0.24070416391 -0.12828071415 0.96208399534
          0.75630754232 0.20150737464 0.62240952253 0.37310820818 -0.21004252136 0.90369927883
          0.85549628735 0.062598474324 0.51401120424 0.32991197705 -0.35391399264 0.87515878677
          0.90093463659 -0.1279142648 0.41467428207 0.37962600589 -0.31328460574 0.87048089504
          0.940279603 -0.14829209447 0.3064045608 0.88633203506 -0.14822252095 0.43868631124
          0.29188126326 -0.15837678313 0.94325089455 0.30019620061 -0.075770303607 0.95086342096
          0.88833379745 -0.11758936942 0.44388714433 0.89032763243 -0.071256712079 0.44971016049
          0.29231882095 -0.053671509027 0.95481365919 0.16590455174 -0.025507964194 0.98581194878
          0.84263193607 0.099145367742 0.5292840004 0.31162536144 0.071493908763 0.94751167297
          0.826125741 0.35143473744 0.44046553969 0.28901845217 0.11217993498 0.95072817802
          0.78822654486 0.43298619986 0.43728932738 -0.34406635165 -0.778198421 0.52538144588
          -0.22115433216 -0.84731841087 0.48284819722 -0.05296254158 -0.88920295238 0.45443716645
          -0.51087939739 -0.6028046608 0.61288565397 -0.55691659451 -0.47095644474 0.68413740396
          -0.63755267859 -0.35790628195 0.68222409487 -0.56103843451 -0.26417705417 0.78450399637
          -0.55921018124 -0.15185031295 0.81500029564 -0.47394785285 -0.059607390314 0.87853312492
          -0.58598577976 -0.038461748511 0.80940800905 -0.63476508856 -0.19078917801 0.7487809062
          -0.45427155495 -0.40884429216 0.79150730371 -0.33397716284 -0.44216558337 0.83243554831
          -0.4452765584 -0.37633919716 0.81246393919 -0.46308967471 -0.25252833962 0.84957486391
          -0.48471745849 -0.090898863971 0.86993473768 -0.37619584799 -0.032627284527 0.92596554756
          -0.45731371641 -0.044040031731 0.88821429014 -0.52228993177 -0.13495716453 0.84202128649
          -0.3922317028 -0.22614961863 0.89163374901 -0.38903787732 -0.26258987188 0.88300406933
          0.18295566738 -0.68551391363 0.7046970129 0.018883315846 -0.038959890604 0.99906235933
          -0.037525899708 0.066581264138 0.99707508087 -0.14133889973 0.19866667688 0.96982204914
          0.0076731843874 0.37547338009 0.9268014431 -0.048923697323 0.61303430796 0.78854012489
          0.43301796913 -0.8591722846 0.27261418104 0.65143740177 -0.45004972816 0.61080652475
          0.44175824523 -0.8614448905 -0.25052425265 0.92632526159 -0.33200767636 0.17802396417
          0.83414900303 0.33167406917 0.44066753983 0.60059803724 0.19711521268 0.77487272024
          0.89816063643 -0.4089422524 0.16147364676 0.51448768377 -0.83770418167 -0.18317803741
          0.39043533802 -0.8868368268 -0.24714522064 0.88198643923 -0.4411008954 0.16592179239
          0.82978844643 0.28981941938 0.47692340612 0.87811481953 0.20658949018 0.43154972792
          0.83596664667 -0.52300053835 0.16622358561 0.30009645224 -0.89795875549 -0.32188862562
          0.39803239703 -0.8740940094 -0.27844193578 0.84310793877 -0.48349913955 0.23536708951
          0.76047980785 0.21931654215 0.61120432615 0.79187685251 0.24927778542 0.55748701096
          0.56477665901 -0.81261634827 -0.14381232858 0.86851727962 -0.37001758814 0.32979509234
          0.43713563681 -0.85525131226 -0.27831205726 0.84357619286 -0.47171151638 0.25664663315
          0.75168895721 0.17895491421 0.63477474451 0.70224964619 0.30062618852 0.64534443617
          0.82173663378 -0.53668749332 0.19161306322 0.78786402941 0.038727022707 0.61463040113
          0.19043125212 0.93612653017 0.29564020038 0.82007706165 -0.34668758512 0.45528161526
          0.27299669385 -0.83202618361 0.48291322589 0.73970156908 -0.65948873758 -0.13385154307
          0.54416692257 -0.30607163906 -0.78115469217 0.39019113779 -0.92048227787 -0.021523669362
          -0.14303615689 -0.78737282753 -0.59965389967 -0.63997811079 -0.099668569863 -0.76190167665
          -0.86993378401 -0.22100365162 -0.44087713957 -0.34811741114 -0.78894603252 -0.50633829832
          -0.79961186647 -0.35807552934 -0.4820818305 -0.18152976036 -0.86382091045 -0.46995797753