<VTKFile type="PolyData" version="1.0" byte_order="LittleEndian" header_type="UInt64">
  <PolyData>
    <Piece NumberOfPoints="293" NumberOfVerts="0" NumberOfLines="0" NumberOfStrips="0" NumberOfPolys="530">
      <PointData Normals="Normal">
        <DataArray type="Int32" Name="Section Id" format="ascii" RangeMin="0" RangeMax="44">
          0 0 0 0 0 0
          0 0 0 0 0 0
          0 0 0 0 0 0
          0 0 0 0 0 0
          0 0 0 0 0 1
          1 1 1 1 1 1
          1 1 1 1 1 1
          1 1 1 1 1 1
          1 1 1 1 1 1
          1 1 1 1 1 1
          1 1 1 1 1 1
          1 1 1 1 1 1
          1 1 1 1 1 1
          1 1 1 1 1 1
          1 1 1 1 1 0
          1 1 1 1 1 1
          1 1 1 1 1 1
          1 1 1 1 1 1
          1 1 1 1 1 1
          1 1 1 1 1 1
          1 1 1 1 1 1
          1 1 1 1 1 0
          0 0 1 1 1 1
          1 1 1 1 1 1
          1 1 1 1 1 1
          1 1 1 1 1 1
          1 1 1 1 1 1
          1 1 1 1 1 1
          1 1 1 1 1 0
          1 1 1 1 1 1
          1 1 1 1 1 1
          1 1 1 1 1 1
          1 1 0 0 44 44
          44 0 44 44 44 44
          44 44 44 44 44 44
          44 44 44 44 44 44
          44 44 44 44 44 44
          44 44 0 0 0 44
          44 44 44 44 44 44
          44 44 44 44 44 44
          44 44 44 44 44 44
          0 44 0 44 44 44
          44 44 44 44 44 44
          44 44 44 44 44 44
          44 44 44 44 0 0
          44 44 44 44 44 44
          44 44 44 0 0 0
          44 44 44 44 44 44
          44 44 0 0 0
        </DataArray>
        <DataArray type="Float32" Name="Normal" NumberOfComponents="3" format="ascii" RangeMin="0.99999994514" RangeMax="1.0000000874">
          0.18880841136 -0.74260449409 0.6425652504 0.59123814106 -0.64003694057 0.49070373178
          0.25597691536 -0.71795558929 0.64731425047 0.8030282259 -0.53811019659 -0.25609198213
          0.79338693619 -0.57686579227 0.19432723522 0.86031961441 -0.41093334556 -0.30163559318
          0.85938060284 -0.47063618898 0.19991658628 0.54293036461 -0.51967221498 -0.65967220068
          0.58705061674 -0.50484085083 -0.63285654783 0.94147247076 -0.26214435697 0.21191978455
          0.92648434639 -0.19002625346 -0.32483351231 0.94367915392 -2.1137924744e-09 -0.3308621347
          0.98752528429 -0.091740056872 0.12797477841 0.71344983578 -0.24231746793 -0.65747362375
          0.67574065924 0.034424908459 -0.73633515835 0.92648440599 0.19002620876 -0.3248333931
          0.97012585402 0.24259282649 -0.0021584411152 0.86031967402 0.41093331575 -0.30163544416
          0.85221141577 0.51544821262 0.089715860784 0.6786776185 0.24376049638 -0.69280415773
          0.56480276585 0.47730350494 -0.67318588495 0.59821099043 0.68553423882 0.41495344043
          0.18345488608 0.6489136219 0.73841416836 0.73852020502 0.62252908945 -0.2589315474
          0.72473245859 0.67958402634 0.11370322853 0.55742239952 0.80689817667 -0.19543708861
          0.65184473991 0.75833028555 0.0058022323065 0.46664386988 0.69394803047 -0.54834258556
          0.33613827825 0.8751553297 -0.34801474214 -0.72835922241 -0.54413998127 -0.41641873121
          -0.090137809515 -0.023034060374 -0.99566292763 -0.067376427352 0.34611028433 -0.9357714057
          -0.82329750061 -0.17404209077 -0.54026901722 -0.82748478651 -0.55927413702 0.049813229591
          -0.61251378059 -0.78097784519 0.12206754088 -0.80772089958 0.3581417799 -0.46831765771
          -0.14218652248 0.54861408472 -0.8238966465 -0.20301556587 0.63979828358 -0.74124413729
          -0.80511152744 0.47865918279 -0.35025826097 -0.97266256809 0.03696750477 0.22926169634
          -0.98555600643 -0.13966009021 0.09578281641 -0.29511013627 0.50869679451 -0.80878776312
          -0.79082536697 0.32012364268 -0.5216473937 -0.2947114706 0.21080395579 -0.93204444647
          -0.85612893105 0.064765997231 -0.51268768311 -0.98101717234 -0.15142984688 0.12113780528
          -0.99719059467 0.045544542372 0.059470105916 -0.77920132875 -0.053236979991 -0.62450873852
          -0.10555879772 0.082879029214 -0.99095332623 -0.11005034298 0.017894187942 -0.99376493692
          -0.81757611036 -0.052385736257 -0.57343268394 -0.9666338563 -0.075178653002 0.24488207698
          -0.97618365288 -0.15937809646 0.14718772471 -0.1883174777 0.010476945899 -0.98205238581
          -0.83133161068 -0.026002408937 -0.55516821146 -0.33929353952 -0.0041528297588 -0.94067138433
          -0.856151402 -0.1139434427 -0.50400578976 -0.96539390087 -0.24449676275 0.09075216949
          -0.9815299511 -0.056070987135 0.18290710449 -0.79787635803 -0.26298815012 -0.54243028164
          -0.21589744091 0.12012270093 -0.9689989686 -0.24210123718 0.32396611571 -0.91456711292
          -0.86396294832 -0.060354862362 -0.49992546439 -0.87365150452 -0.41316497326 0.25695866346
          -0.85543531179 -0.45316821337 0.25073692203 -0.89635413885 0.13872948289 -0.4210742116
          -0.31973135471 0.34646978974 -0.88189035654 -0.24971888959 0.22406859696 -0.94203704596
          -0.84805226326 0.15579046309 -0.5064945817 -0.97024524212 -0.045139826834 0.2378795445
          -0.94783633947 -0.16402956843 0.27331405878 -0.43942275643 0.044927731156 -0.89715617895
          -0.91294282675 0.012878265232 -0.40788429976 -0.29070177674 -0.076225221157 -0.95377266407
          -0.91534167528 -0.028653649613 -0.40165734291 -0.90617930889 -0.017850043252 0.42251679301
          -0.96519678831 -0.034454289824 0.25924536586 -0.39185577631 -0.062767997384 -0.91788297892
          -0.92081737518 -0.052396282554 -0.3864583075 -0.50428175926 -0.082176946104 -0.85962021351
          -0.93691295385 -0.17030440271 -0.30527129769 -0.92136907578 -0.19264602661 0.33758938313
          -0.93793153763 -0.067675992846 0.34015354514 -0.85391050577 -0.30749368668 -0.41986247897
          -0.35227429867 -0.050071071833 -0.93455648422 -0.36556500196 -0.031831089407 -0.93024140596
          -0.83627319336 -0.36098748446 -0.41271683574 -0.83672451973 -0.44394370914 0.32063376904
          -0.87815803289 -0.34754776955 0.32870817184 0.89622414112 -0.28650584817 -0.33866900206
          0.93269485235 0.14739304781 -0.32917413116 0.59433567524 -0.089983068407 -0.79916721582
          0.5997146368 0.33737966418 -0.72561514378 0.94030332565 0.21581374109 -0.26316192746
          0.60152757168 0.42152965069 -0.67858487368 0.97917509079 0.0075563169084 -0.20287695527
          0.54059565067 0.41182234883 -0.73359304667 0.96776717901 -0.063830412924 -0.24362351
          0.55133610964 0.41401177645 -0.72430855036 0.92694664001 0.083130188286 -0.36586788297
          0.44291356206 0.38838234544 -0.80807602406 0.96986824274 0.10560117662 -0.21955406666
          0.51684033871 0.22003190219 -0.82732218504 0.54020565748 0.14523649216 -0.82890546322
          0.97204703093 0.14549343288 -0.1842725873 0.99312371016 0.089188426733 -0.075833894312
          0.65277707577 0.070868313313 -0.75422799587 0.98317867517 0.034753616899 -0.17930939794
          0.56879377365 0.036670804024 -0.82166230679 0.95330774784 0.19377197325 -0.23163925111
          0.45619773865 0.15772502124 -0.87578910589 0.46463924646 0.41783639789 -0.78071963787
          0.88613188267 0.45835885406 -0.06839235127 0.94878953695 0.29345664382 -0.11696851254
          0.52435618639 0.45256793499 -0.72127175331 0.94474804401 0.15960446 -0.28631716967
          0.44342401624 0.35208898783 -0.8242623806 0.90376621485 0.084115043283 -0.41967990994
          0.42093750834 0.21782843769 -0.88054668903 0.91523450613 -0.07152787596 -0.39652198553
          0.32304865122 0.004096867051 -0.94637352228 0.96236461401 -0.13893590868 -0.23356182873
          0.51052731276 -0.11754105985 -0.85178989172 0.93346500397 -0.10731896013 -0.34223636985
          0.39194893837 -0.075735189021 -0.91686433554 0.93043768406 0.13310180604 -0.34142294526
          0.30609327555 0.054559390992 -0.95043689013 0.35742592812 0.2637181282 -0.89593499899
          0.82450389862 0.46769154072 -0.31852474809 0.79877465963 0.51536732912 -0.31041198969
          0.33217352629 0.3355088532 -0.88152968884 0.45130181313 -0.73404616117 0.50744748116
          0.3919980824 -0.73098009825 0.55857461691 0.85995155573 -0.47804558277 0.17876189947
          0.94915634394 -0.25295287371 0.18739563227 0.38106006384 -0.70539957285 0.59766608477
          0.92476218939 -0.25913843513 0.27867928147 0.35377267003 -0.66991734505 0.65272945166
          0.87078911066 -0.37523427606 0.31768792868 0.1209096089 -0.66365599632 0.73820161819
          0.7840681076 -0.49574878812 0.37345740199 0.20523820817 -0.53303611279 0.82082265615
          0.88324445486 -0.31934651732 0.34336137772 0.090255744755 -0.20523093641 0.97454303503
          0.8069575429 -0.055197883397 0.58802449703 0.24630224705 -0.038440093398 0.9684305191
          0.85106372833 0.078848399222 0.51910835505 0.27311861515 -0.0066031534225 0.9619577527
          0.81885963678 0.04369957 0.57232791185 0.8197337389 0.028148189187 0.57205271721
          0.15785911679 -0.0042488058098 0.98745256662 0.021715007722 -0.070593237877 0.99726879597
          0.77055317163 0.13973619044 0.62186956406 0.24070416391 -0.12828071415 0.96208399534
          0.75630754232 0.20150737464 0.62240952253 0.37310820818 -0.21004252136 0.90369927883
          0.85549628735 0.062598474324 0.51401120424 0.32991197705 -0.35391399264 0.87515878677
          0.90093463659 -0.1279142648 0.41467428207 0.37962600589 -0.31328460574 0.87048089504
          0.940279603 -0.14829209447 0.3064045608 0.88633203506 -0.14822252095 0.43868631124
          0.29188126326 -0.15837678313 0.94325089455 0.30019620061 -0.075770303607 0.95086342096
          0.88833379745 -0.11758936942 0.44388714433 0.89032763243 -0.071256712079 0.44971016049
          0.29231882095 -0.053671509027 0.95481365919 0.16590455174 -0.025507964194 0.98581194878
          0.84263193607 0.099145367742 0.5292840004 0.31162536144 0.071493908763 0.94751167297
          0.826125741 0.35143473744 0.44046553969 0.28901845217 0.11217993498 0.95072817802
          0.78822654486 0.43298619986 0.43728932738 -0.05296254158 -0.88920295238 0.45443716645
          -0.22115433216 -0.84731841087 0.48284819722 -0.34406635165 -0.778198421 0.52538144588
          -0.51087939739 -0.6028046608 0.61288565397 -0.55691659451 -0.47095644474 0.68413740396
          -0.63755267859 -0.35790628195 0.68222409487 -0.56103843451 -0.26417705417 0.78450399637
          -0.55921018124 -0.15185031295 0.81500029564 -0.47394785285 -0.059607390314 0.87853312492
          -0.58598577976 -0.038461748511 0.80940800905 -0.63476508856 -0.19078917801 0.7487809062
          -0.45427155495 -0.40884429216 0.79150730371 -0.33397716284 -0.44216558337 0.83243554831
          -0.4452765584 -0.37633919716 0.81246393919 -0.46308967471 -0.25252833962 0.84957486391
          -0.48471745849 -0.090898863971 0.86993473768 -0.37619584799 -0.032627284527 0.92596554756
          -0.45731371641 -0.044040031731 0.88821429014 -0.52228993177 -0.13495716453 0.84202128649
          -0.3922317028 -0.22614961863 0.89163374901 -0.38903787732 -0.26258987188 0.88300406933
          -0.037525899708 0.066581264138 0.99707508087 -0.14133889973 0.19866667688 0.96982204914
          0.18295566738 -0.68551391363 0.7046970129 0.018883315846 -0.038959890604 0.99906235933
          0.0076731843874 0.37547338009 0.9268014431 -0.048923697323 0.61303430796 0.78854012489
          0.43301796913 -0.8591722846 0.27261418104 0.65143740177 -0.45004972816 0.61080652475
          0.44175824523 -0.8614448905 -0.25052425265 0.92632526159 -0.33200767636 0.17802396417
          0.83414900303 0.33167406917 0.44066753983 0.60059803724 0.19711521268 0.77487272024
          0.89816063643 -0.4089422524 0.16147364676 0.51448768377 -0.83770418167 -0.18317803741
          0.39043533802 -0.8868368268 -0.24714522064 0.88198643923 -0.4411008954 0.16592179239
          0.82978844643 0.28981941938 0.47692340612 0.87811481953 0.20658949018 0.43154972792
          0.83596664667 -0.52300053835 0.16622358561 0.30009645224 -0.89795875549 -0.32188862562
          0.39803239703 -0.8740940094 -0.27844193578 0.84310793877 -0.48349913955 0.23536708951
          0.76047980785 0.21931654215 0.61120432615 0.79187685251 0.24927778542 0.55748701096
          0.56477665901 -0.81261634827 -0.14381232858 0.86851727962 -0.37001758814 0.32979509234
          0.43713563681 -0.85525131226 -0.27831205726 0.84357619286 -0.47171151638 0.25664663315
          0.75168895721 0.17895491421 0.63477474451 0.70224964619 0.30062618852 0.64534443617
          0.19043125212 0.93612653017 0.29564020038 0.82007706165 -0.34668758512 0.45528161526
          0.27299669385 -0.83202618361 0.48291322589 0.73970156908 -0.65948873758 -0.13385154307
          0.54416692257 -0.30607163906 -0.78115469217 0.39019113779 -0.92048227787 -0.021523669362
          -0.14303615689 -0.78737282753 -0.59965389967 -0.63997811079 -0.099668569863 -0.76190167665
          -0.86993378401 -0.22100365162 -0.44087713957 -0.34811741114 -0.78894603252 -0.50633829832
          -0.79961186647 -0.35807552934 -0.4820818305 -0.18152976036 -0.86382091045 -0.46995797753
          -0.82461506128 -0.28411963582 -0.48916882277 -0.30870202184 -0.8056486249 -0.50560200214
          -0.34548941255 -0.73724746704 -0.58060598373 -0.7917688489 -0.24999544024 -0.55731898546
          -0.76359438896 -0.2234313786 -0.60580694675 -0.25832417607 -0.74813067913 -0.61120313406
          -0.78614360094 -0.14984852076 -0.5996029377 -0.17822520435 -0.77687036991 -0.60391080379
          -0.73135775328 -0.22436267138 -0.6440320611 -0.1964764446 -0.73783415556 -0.64575362206
          0.61328554153 0.76714318991 0.18807482719 0.65773332119 0.72473323345 -0.20530118048
          0.99076992273 0.13138794899 0.033349636942 0.86776459217 0.062634073198 -0.49301278591
          0.40709617734 0.80020540953 -0.44039061666 0.41805011034 0.18135067821 -0.89013820887
          -0.80017322302 0.46324652433 -0.38095349073 -0.33009728789 0.94298481941 0.042607836425
          -0.36221051216 0.89490783215 0.26065993309 -0.87585443258 0.4657446146 -0.12633691728
          -0.44083496928 0.86948794127 0.22283473611 -0.89896607399 0.40336975455 -0.17074207962
          -0.47682777047 0.85511553288 0.20350120962 -0.90151923895 0.38515084982 -0.19728660583
          -0.56320095062 0.81494861841 0.13661447167 -0.89191365242 0.34655663371 -0.2904971242
          -0.48642212152 0.84953188896 0.20417912304 -0.860070467 0.42380562425 -0.2840205431
          -0.82092916965 0.53690725565 -0.19443757832 -0.37262696028 0.87645542622 0.30491808057
          -0.41293662786 0.8597638607 0.30048206449 -0.85328567028 0.44338682294 -0.27442988753
          0.18627864122 0.83127260208 0.52372342348 0.15652519464 0.93088394403 0.330083251
          -0.019561363384 0.79287022352 0.60907649994 0.18919049203 0.73116588593 0.65544140339
          0.34237623215 0.80899649858 0.47781088948 0.32484722137 0.80758774281 0.4922157526
          0.24791318178 0.83262354136 0.49525469542 0.15206161141 0.83457934856 0.52948528528
          0.19241730869 0.78370851278 0.59057307243 0.2117832303 0.76104038954 0.61316025257
          0.26587697864 0.70908862352 0.65307182074 0.77648389339 -0.34616175294 0.5265403986
          0.61113530397 -0.41705870628 0.67273747921 0.64509767294 -0.51088708639 0.56819313765
          0.82173663378 -0.53668749332 0.19161306322 0.39409348369 -0.84661740065 -0.35767221451
          0.78786402941 0.038727022707 0.61463040113 -0.63018983603 -0.31214243174 -0.71093451977
          -0.11549340189 -0.73522996902 -0.6679058075 -0.53590768576 0.80947303772 0.23990896344
          -0.85971134901 0.37820538878 -0.34330320358 0.20894381404 0.69401073456 0.68897861242
          0.37121158838 0.42748036981 0.82429516315 0.070486858487 0.92482876778 -0.37379601598
          0.3805026412 0.8738168478 -0.30275714397
        </DataArray>
        <DataArray type="Float32" Name="RTNeuron Opacity" format="ascii" RangeMin="0.028935780749" RangeMax="0.32211884856">
          0.32211884856 0.32211884856 0.32211884856 0.32211884856 0.32211884856 0.32211884856
          0.32211884856 0.32211884856 0.32211884856 0.32211884856 0.32211884856 0.32211884856
          0.32211884856 0.32211884856 0.32211884856 0.32211884856 0.32211884856 0.32211884856
          0.32211884856 0.32211884856 0.32211884856 0.32211884856 0.32211884856 0.32211884856
          0.32211884856 0.32211884856 0.32211884856 0.32211884856 0.32211884856 0.13610614836
          0.13412968814 0.099130436778 0.099130436778 0.099130436778 0.13623197377 0.092664733529
          0.092932395637 0.088042408228 0.08798391372 0.088118322194 0.092968910933 0.082391515374
          0.082431003451 0.077147006989 0.077147006989 0.077147006989 0.082663603127 0.077147006989
          0.077147006989 0.077147006989 0.077147006989 0.077147014439 0.077147006989 0.077146999538
          0.077147006989 0.077147006989 0.077147006989 0.077147006989 0.077147006989 0.077147006989
          0.077147006989 0.077147006989 0.077147014439 0.077147006989 0.077147014439 0.077147006989
          0.077147006989 0.077147006989 0.077147006989 0.077147006989 0.077147006989 0.066245362163
          0.065879374743 0.053826678544 0.053688973188 0.053547717631 0.065401367843 0.041166126728
          0.040989998728 0.029500300065 0.02909560129 0.028935780749 0.040920507163 0.034494370222
          0.034622915089 0.040953591466 0.040797624737 0.040728632361 0.034443661571 0.32211884856
          0.12489920855 0.15791592002 0.12861178815 0.099130436778 0.099130436778 0.094641283154
          0.093782193959 0.088620454073 0.088318958879 0.082970656455 0.08263591677 0.077146999538
          0.077147006989 0.077147006989 0.077147006989 0.077147006989 0.077147006989 0.077146999538
          0.077147006989 0.077147006989 0.077147006989 0.077147006989 0.077147006989 0.077146999538
          0.077147006989 0.077147006989 0.077147006989 0.077147006989 0.077147006989 0.065911337733
          0.066218912601 0.053816262633 0.053867932409 0.041485864669 0.041366964579 0.030234076083
          0.029961274937 0.034769438207 0.034856211394 0.041214391589 0.041121464223 0.32211884856
          0.27937066555 0.32211884856 0.12861178815 0.099130436778 0.099130436778 0.094677567482
          0.094943113625 0.088696196675 0.088754527271 0.083242148161 0.083202786744 0.077147006989
          0.077146999538 0.077147006989 0.077147006989 0.077146999538 0.077147006989 0.077147006989
          0.077147006989 0.077147006989 0.077147006989 0.077147006989 0.077147006989 0.077147006989
          0.077147006989 0.077147006989 0.077147014439 0.077147006989 0.077147006989 0.065433390439
          0.065066352487 0.053537324071 0.053675077856 0.041416432709 0.04124044627 0.029670821503
          0.030074793845 0.034677088261 0.034805539995 0.040989663452 0.041145510972 0.32211884856
          0.13610614836 0.099130436778 0.09383071959 0.088420055807 0.082998298109 0.077147006989
          0.077147006989 0.077147006989 0.077147006989 0.077147006989 0.077147014439 0.077147006989
          0.077147006989 0.077147014439 0.065092906356 0.053496018052 0.041039574891 0.029209455475
          0.034530520439 0.040821656585 0.30766841769 0.30470693111 0.11501418799 0.11279750615
          0.10488992184 0.29350239038 0.082849644125 0.082863084972 0.077147006989 0.077146999538
          0.077147006989 0.082853578031 0.077147014439 0.077147006989 0.077147006989 0.077147006989
          0.077147006989 0.077147006989 0.077147006989 0.077147006989 0.077146999538 0.077147006989
          0.077147014439 0.077147006989 0.077147006989 0.077147006989 0.077147006989 0.077146999538
          0.077147006989 0.077147006989 0.32211884856 0.32211884856 0.29817992449 0.095009170473
          0.097048483789 0.10793817788 0.082814544439 0.082780778408 0.077146999538 0.077147006989
          0.077147006989 0.077147006989 0.077147014439 0.077147006989 0.077146999538 0.077147006989
          0.077147006989 0.077147006989 0.077147006989 0.077147006989 0.077147006989 0.077147006989
          0.32211884856 0.079889178276 0.32211884856 0.080997563899 0.087281771004 0.089042119682
          0.082771271467 0.082784712315 0.077147006989 0.077147006989 0.077146999538 0.077147006989
          0.077147006989 0.077147006989 0.077147006989 0.077146999538 0.077146999538 0.077146999538
          0.077147006989 0.077147006989 0.077147006989 0.077147006989 0.32211884856 0.27456155419
          0.094630047679 0.082819812 0.077146999538 0.077147006989 0.077147006989 0.077147006989
          0.077147006989 0.077147006989 0.077147006989 0.32211884856 0.19257391989 0.32211884856
          0.077147006989 0.077146999538 0.077147006989 0.077147006989 0.077146999538 0.077147006989
          0.077147006989 0.077147006989 0.32211884856 0.32211884856 0.32211884856
        </DataArray>
        <DataArray type="Float32" Name="Voltage" format="ascii" RangeMin="-65" RangeMax="-65">
          -65 -65 -65 -65 -65 -65
          -65 -65 -65 -65 -65 -65
          -65 -65 -65 -65 -65 -65
          -65 -65 -65 -65 -65 -65
          -65 -65 -65 -65 -65 -65
          -65 -65 -65 -65 -65 -65
          -65 -65 -65 -65 -65 -65
          -65 -65 -65 -65 -65 -65
          -65 -65 -65 -65 -65 -65
          -65 -65 -65 -65 -65 -65
          -65 -65 -65 -65 -65 -65
          -65 -65 -65 -65 -65 -65
          -65 -65 -65 -65 -65 -65
          -65 -65 -65 -65 -65 -65
          -65 -65 -65 -65 -65 -65
          -65 -65 -65 -65 -65 -65
          -65 -65 -65 -65 -65 -65
          -65 -65 -65 -65 -65 -65
          -65 -65 -65 -65 -65 -65
          -65 -65 -65 -65 -65 -65
          -65 -65 -65 -65 -65 -65
          -65 -65 -65 -65 -65 -65
          -65 -65 -65 -65 -65 -65
          -65 -65 -65 -65 -65 -65
          -65 -65 -65 -65 -65 -65
          -65 -65 -65 -65 -65 -65
          -65 -65 -65 -65 -65 -65
          -65 -65 -65 -65 -65 -65
          -65 -65 -65 -65 -65 -65
          -65 -65 -65 -65 -65 -65
          -65 -65 -65 -65 -65 -65
          -65 -65 -65 -65 -65 -65
          -65 -65 -65 -65 -65 -65
          -65 -65 -65 -65 -65 -65
          -65 -65 -65 -65 -65 -65
          -65 -65 -65 -65 -65 -65
          -65 -65 -65 -65 -65 -65
          -65 -65 -65 -65 -65 -65
          -65 -65 -65 -65 -65 -65
          -65 -65 -65 -65 -65 -65
          -65 -65 -65 -65 -65 -65
          -65 -65 -65 -65 -65 -65
          -65 -65 -65 -65 -65 -65
          -65 -65 -65 -65 -65 -65
          -65 -65 -65 -65 -65 -65
          -65 -65 -65 -65 -65 -65
          -65 -65 -65 -65 -65 -65
          -65 -65 -65 -65 -65 -65
          -65 -65 -65 -65 -65
        </DataArray>
      </PointData>
      <CellData Normals="Normal">
        <DataArray type="Int32" Name="Section Id" format="ascii" RangeMin="0" RangeMax="44">
          1 1 1 1 1 1
          1 1 1 1 1 1
          1 1 1 1 1 1
          1 1 1 1 1 1
          1 1 1 1 1 1
          1 1 1 1 1 1
          1 1 1 1 1 1
          1 1 1 1 1 1
          1 1 1 1 1 1
          1 1 1 1 1 1
          1 1 1 1 1 1
          1 1 1 1 1 1
          1 1 1 1 1 1
          1 1 1 1 1 1
          1 1 1 1 1 1
          1 1 1 1 1 1
          1 1 1 1 1 1
          1 1 1 1 1 1
          1 1 1 1 1 1
          1 1 1 1 1 1
          1 1 1 1 1 1
          1 1 1 1 1 1
          1 1 1 1 1 1
          1 1 1 1 1 1
          1 1 1 1 1 1
          1 1 1 1 1 0
          0 1 1 1 1 1
          0 1 1 1 1 1
          1 1 1 1 1 1
          1 1 1 1 1 1
          1 1 1 1 1 1
          1 1 1 1 1 1
          1 1 1 1 1 1
          1 1 1 1 1 1
          1 1 1 1 1 1
          1 1 1 1 1 1
          1 1 1 1 1 1
          1 1 1 1 1 1
          1 1 1 1 1 1
          1 1 1 1 1 0
          0 1 1 1 1 1
          1 1 1 1 1 1
          1 1 1 1 1 1
          1 1 1 1 1 1
          1 1 1 1 1 1
          1 1 1 1 1 1
          1 1 1 1 1 1
          1 1 1 1 1 1
          1 1 1 1 1 1
          1 1 1 1 1 1
          1 1 1 1 1 1
          1 1 1 1 1 1
          1 29 15 29 15 44
          44 44 44 44 44 44
          44 44 44 44 44 44
          44 44 44 44 44 44
          44 44 44 44 44 44
          44 44 44 44 44 44
          44 44 44 0 15 44
          29 29 15 0 44 44
          44 44 44 44 44 44
          44 44 44 44 44 44
          44 44 44 44 44 44
          44 44 44 44 44 44
          44 44 44 44 44 44
          44 44 44 15 29 44
          44 44 44 15 29 44
          44 44 44 44 44 44
          44 44 44 44 44 44
          44 44 44 44 44 44
          44 44 44 44 44 44
          44 44 44 44 44 44
          44 44 44 0 15 29
          29 29 15 0 44 44
          44 44 44 44 44 44
          44 44 44 44 44 44
          44 44 44 44 44 44
          44 44 44 44 44 44
          44 44 44 44 44 44
          44 0 0 0 0 0
          0 0 0 0 0 0
          0 0 0 0 0 0
          0 0 0 0 0 0
          0 0 0 0 0 0
          0 0 0 0 0 0
          0 0 0 0 0 0
          0 0 0 0 0 0
          0 0 0 0 0 0
          0 0
        </DataArray>
        <DataArray type="Float32" Name="Normal" NumberOfComponents="3" format="ascii" RangeMin="0.59894188094" RangeMax="0.99295946004">
          -0.32693725824 0.049678042531 -0.82390111685 -0.54726481438 -0.24707204103 -0.65078353882
          -0.79304718971 -0.42581874132 -0.30229151249 -0.72278594971 -0.62813067436 -0.081512652338
          -0.5661315918 0.17673665285 -0.64811933041 -0.33909460902 0.41762205958 -0.74266189337
          -0.38430765271 0.51551806927 -0.67781949043 -0.6052826643 0.49219974875 -0.51994001865
          -0.86183166504 0.29125615954 -0.19643807411 -0.92197984457 0.085149735212 -0.047757714987
          -0.87877941132 -0.29099211097 -0.13155765831 -0.87219148874 0.014813199639 -0.30426794291
          -0.4344124198 0.54238474369 -0.63343006372 -0.63034904003 0.43582653999 -0.5602311492
          -0.46021565795 0.34654146433 -0.75415986776 -0.64722192287 0.19856452942 -0.65545982122
          -0.94477891922 -0.013706435449 -0.11069325358 -0.8813816309 0.14347806573 -0.32495498657
          -0.9249882102 0.18705707788 -0.020508820191 -0.8643758297 0.2814424634 -0.27081185579
          -0.64334726334 0.074110992253 -0.6897469759 -0.39315718412 0.080148667097 -0.84916883707
          -0.33160349727 0.015845412388 -0.86974233389 -0.56894260645 -0.02924284339 -0.73056876659
          -0.92013120651 -0.095647491515 -0.060454294086 -0.85765367746 -0.08833360672 -0.35025122762
          -0.91213405132 -0.12134830654 -0.11872773618 -0.87211579084 -0.046633608639 -0.338686198
          -0.37198132277 -0.0080048674718 -0.84974998236 -0.61240839958 -0.0226370655 -0.70355111361
          -0.45298087597 -0.0065594310872 -0.825963974 -0.67559218407 -0.048032894731 -0.66661512852
          -0.93435841799 -0.13817039132 -0.076782174408 -0.88967096806 -0.065338946879 -0.29208895564
          -0.92649847269 -0.05241734907 -0.042459677905 -0.87184721231 -0.051188930869 -0.29457294941
          -0.66444045305 -0.12702813745 -0.66236913204 -0.45102244616 -0.049006093293 -0.81736689806
          -0.44065386057 0.12791131437 -0.79449719191 -0.62591224909 -0.067740105093 -0.67045158148
          -0.84516358376 -0.24550266564 -0.26179903746 -0.84232103825 -0.37644043565 -0.01157823205
          -0.8729018569 -0.32021769881 -0.066980399191 -0.8731405735 -0.20714278519 -0.31856131554
          -0.66747277975 0.13411357999 -0.61185562611 -0.48606222868 0.26972180605 -0.73917722702
          -0.47250083089 0.24210961163 -0.7768073082 -0.68804591894 0.21366325021 -0.60315304995
          -0.90488386154 0.083126708865 -0.2298964113 -0.93814522028 -0.023479970172 0.030039796606
          -0.89515024424 -0.21251647174 0.010115752928 -0.90271782875 -0.028551649302 -0.21589520574
          -0.51239794493 0.14159560204 -0.78189593554 -0.73347258568 0.071198821068 -0.60384500027
          -0.54768913984 -0.0061397417448 -0.75293773413 -0.70632874966 -0.030666869134 -0.58777141571
          -0.92890590429 -0.026985993609 0.093368269503 -0.93116044998 -0.016743224114 -0.1834320873
          -0.94946163893 -0.022238617763 0.029746869579 -0.91041344404 0.041176300496 -0.22549977899
          -0.53263306618 -0.055882290006 -0.75777101517 -0.74267160892 -0.047939307988 -0.56866621971
          -0.60565161705 -0.06578040868 -0.72132050991 -0.78733736277 -0.10162587464 -0.51711660624
          -0.93207120895 -0.14354214072 0.12415721267 -0.93188726902 -0.09679222852 -0.1171920225
          -0.9216427207 -0.045974105597 0.12540401518 -0.91411280632 -0.032966658473 -0.1218662858
          -0.76503509283 -0.18665835261 -0.52825134993 -0.57015550137 -0.146580562 -0.7380130291
          -0.518037498 -0.14762988687 -0.75917160511 -0.6808193326 -0.23951742053 -0.58904528618
          -0.84230273962 -0.37080830336 -0.17064851522 -0.8562643528 -0.36632838845 0.076493151486
          -0.91214668751 -0.23683273792 0.12034208328 -0.88966047764 -0.27511528134 -0.13214187324
          0.80775153637 -0.076365292072 -0.48900344968 0.7089150548 0.13159655035 -0.61798548698
          0.82423758507 0.23352882266 -0.4393170774 0.71384853125 0.32490769029 -0.55578732491
          0.37795525789 0.3683398664 -0.77999049425 0.14740014076 0.22015196085 -0.8856831789
          0.36797082424 0.074787512422 -0.84014844894 0.84033530951 0.21496656537 -0.38154125214
          0.70709943771 0.28030276299 -0.53835165501 0.82917928696 0.11851608753 -0.39336448908
          0.68656629324 0.25400123 -0.56717503071 0.068711340427 0.53414136171 -0.76314979792
          0.31658175588 0.45814940333 -0.76059943438 0.11034423113 0.43551558256 -0.83108705282
          0.35824891925 0.39315408468 -0.78264975548 0.81534999609 0.14443717897 -0.44459998608
          0.64039874077 0.29517477751 -0.63275080919 0.80455172062 0.13625442982 -0.47091472149
          0.62890017033 0.23051480949 -0.66708868742 0.22168080509 0.27307271957 -0.85581421852
          -0.04896934703 0.36929437518 -0.84963607788 -0.018404046074 0.51229250431 -0.78603595495
          0.26374471188 0.48073080182 -0.75787621737 0.67563807964 0.15695652366 -0.62526059151