<VTKFile type="PolyData" version="1.0" byte_order="LittleEndian" header_type="UInt64">
  <PolyData>
    <Piece NumberOfPoints="512" NumberOfVerts="0" NumberOfLines="0" NumberOfStrips="0" NumberOfPolys="960">
      <PointData>
      </PointData>
      <CellData Scalars="Elevation" Normals="Normals">
        <DataArray type="Float32" Name="Normals" NumberOfComponents="3" format="ascii" RangeMin="0.99779007061" RangeMax="0.99885375515">
          -0.067283160985 -0.0033054098021 0.99657958746 -0.066635191441 -0.0098843965679 0.99657958746
          -0.065345481038 -0.016368191689 0.99657958746 -0.063426464796 -0.022694351152 0.99657958746
          -0.060896608979 -0.02880195342 0.99657958746 -0.057780291885 -0.034632176161 0.99657958746
          -0.054107520729 -0.040128868073 0.99657958746 -0.049913659692 -0.045239102095 0.99657958746
          -0.045239102095 -0.049913659692 0.99657958746 -0.040128868073 -0.054107520729 0.99657958746
          -0.034632176161 -0.057780291885 0.99657958746 -0.02880195342 -0.060896608979 0.99657958746
          -0.022694351152 -0.063426464796 0.99657958746 -0.016368191689 -0.065345481038 0.99657958746
          -0.0098843965679 -0.066635191441 0.99657958746 -0.0033054098021 -0.067283160985 0.99657958746
          -0.067283160985 -0.0033054098021 -0.99657958746 -0.066635191441 -0.0098843965679 -0.99657958746
          -0.065345481038 -0.016368191689 -0.99657958746 -0.063426464796 -0.022694351152 -0.99657958746
          -0.060896608979 -0.02880195342 -0.99657958746 -0.057780291885 -0.034632176161 -0.99657958746
          -0.054107520729 -0.040128868073 -0.99657958746 -0.049913659692 -0.045239102095 -0.99657958746
          -0.045239102095 -0.049913659692 -0.99657958746 -0.040128868073 -0.054107520729 -0.99657958746
          -0.034632176161 -0.057780291885 -0.99657958746 -0.02880195342 -0.060896608979 -0.99657958746
          -0.022694351152 -0.063426464796 -0.99657958746 -0.016368191689 -0.065345481038 -0.99657958746
          -0.0098843965679 -0.066635191441 -0.99657958746 -0.0033054098021 -0.067283160985 -0.99657958746
          -0.16759867966 -0.0065769017674 0.98464304209 -0.13405956328 -0.0098823113367 0.98975622654
          -0.26619440317 -0.0097809052095 0.96260279417 -0.23318311572 -0.016357807443 0.97106635571
          -0.36205863953 -0.01288454514 0.93068498373 -0.3299138844 -0.022665450349 0.94241207838
          -0.45420765877 -0.015855969861 0.88921701908 -0.42325928807 -0.028740515932 0.90408742428
          -0.54169583321 -0.01866469346 0.83862453699 -0.5122615099 -0.034520663321 0.85648554564
          -0.62362551689 -0.021281890571 0.77942657471 -0.59600716829 -0.039946582168 0.80009502172
          -0.69915598631 -0.023680703714 0.71223068237 -0.67363703251 -0.044962596148 0.73549437523
          -0.76751214266 -0.025836525485 0.63772630692 -0.74435448647 -0.049517229199 0.66334658861
          -0.82799261808 -0.027727229521 0.55667799711 -0.80743384361 -0.053563755006 0.58439195156
          -0.87997674942 -0.029333410785 0.46991744637 -0.86222779751 -0.057060640305 0.49944069982
          -0.9229310751 -0.030638592318 0.37833487988 -0.90817415714 -0.059972003102 0.4093645215
          -0.95641493797 -0.031629383564 0.28287008405 -0.94480144978 -0.062267977744 0.31508767605
          -0.98008465767 -0.032295610756 0.18450269103 -0.97173374891 -0.063924998045 0.21757760644
          -0.99369740486 -0.032630447298 0.084242038429 -0.98869478703 -0.064926058054 0.11783491075
          -0.99711346626 -0.032630447298 -0.016883056611 -0.99551045895 -0.065260894597 0.016883056611
          -0.99029779434 -0.032295610756 -0.11783491075 -0.99211084843 -0.064926058054 -0.084242038429
          -0.97332036495 -0.031629383564 -0.21757760644 -0.97853082418 -0.063924998045 -0.18450269103
          -0.94635528326 -0.030638592318 -0.31508767605 -0.95490974188 -0.062267977744 -0.28287008405
          -0.90967935324 -0.029333410785 -0.4093645215 -0.9214900136 -0.059972003102 -0.37833487988
          -0.863668859 -0.027727229521 -0.49944069982 -0.87861460447 -0.057060640305 -0.46991744637
          -0.80879598856 -0.025836525485 -0.58439195156 -0.82672333717 -0.053563755006 -0.55667799711
          -0.74562370777 -0.023680703714 -0.66334658861 -0.7663487792 -0.049517229199 -0.63772630692
          -0.67480039597 -0.021281890571 -0.73549437523 -0.69811046124 -0.044962596148 -0.71223068237
          -0.59705269337 -0.01866469346 -0.80009502172 -0.62270861864 -0.039946582168 -0.77942657471
          -0.51317840815 -0.015855969861 -0.85648554564 -0.54091691971 -0.034520663321 -0.83862453699
          -0.42403826118 -0.01288454514 -0.90408742428 -0.45357465744 -0.028740515932 -0.88921701908
          -0.33054685593 -0.0097809052095 -0.94241207838 -0.36157813668 -0.022665450349 -0.93068498373
          -0.23366361856 -0.0065769017674 -0.97106635571 -0.26587131619 -0.016357807443 -0.96260279417
          -0.13438266516 -0.0033054098021 -0.98975622654 -0.16743630171 -0.0098823113367 -0.98464304209
          -0.16614700854 -0.022972775623 0.98464304209 -0.13244539499 -0.022974859923 0.98975622654
          -0.26395392418 -0.035825423896 0.96260279417 -0.23045691848 -0.039134982973 0.97106635571
          -0.35905230045 -0.04831045121 0.93068498373 -0.32610365748 -0.054893523455 0.94241207838
          -0.45046636462 -0.060299754143 0.88921701908 -0.41840413213 -0.070088788867 0.90408742428
          -0.53725796938 -0.071670293808 0.83862453699 -0.5064111948 -0.084564842284 0.85648554564
          -0.61853659153 -0.082305401564 0.77942657471 -0.58922177553 -0.09817314893 0.80009502172
          -0.69346821308 -0.092095948756 0.71223068237 -0.66598618031 -0.11077406257 0.73549437523
          -0.76128393412 -0.10094145685 0.63772630692 -0.73591667414 -0.12223828584 0.66334658861
          -0.82128787041 -0.10875118524 0.55667799711 -0.7982956171 -0.13244818151 0.58439195156
          -0.87286424637 -0.11544496566 0.46991744637 -0.85248303413 -0.14129897952 0.49944069982
          -0.91548383236 -0.12095412612 0.37833487988 -0.89792275429 -0.14869984984 0.4093645215
          -0.9487093091 -0.12522213161 0.28287008405 -0.93414860964 -0.15457487106 0.31508767605
          -0.97219979763 -0.12820519507 0.18450269103 -0.96078884602 -0.15886373818 0.21757760644
          -0.98571413755 -0.12987269461 0.084242038429 -0.97757005692 -0.16152244806 0.11783491075
          -0.98911374807 -0.1302075386 -0.016883056611 -0.98432010412 -0.16252373159 0.016883056611
          -0.98236370087 -0.12920625508 -0.11783491075 -0.98096966743 -0.16185729206 -0.084242038429
          -0.96553331614 -0.12687915564 -0.21757760644 -0.96755319834 -0.1595299691 -0.18450269103
          -0.93879520893 -0.12325009704 -0.31508767605 -0.94420826435 -0.15556566417 -0.28287008405
          -0.90242379904 -0.11835632473 -0.4093645215 -0.91117453575 -0.15000504255 -0.37833487988
          -0.85679233074 -0.11224807054 -0.49944069982 -0.86879086494 -0.14290516078 -0.46991744637
          -0.80236899853 -0.10498798639 -0.58439195156 -0.81749224663 -0.13433888555 -0.55667799711
          -0.73971223831 -0.096650578082 -0.66334658861 -0.75780504942 -0.12439410388 -0.63772630692
          -0.669465065 -0.087321415544 -0.73549437523 -0.69034177065 -0.11317287385 -0.71223068237
          -0.59234827757 -0.077096216381 -0.80009502172 -0.61579465866 -0.10079034418 -0.77942657471
          -0.50915318727 -0.066079899669 -0.85648554564 -0.53492861986 -0.087373562157 -0.83862453699
          -0.42073348165 -0.054385516793 -0.90408742428 -0.44857352972 -0.07306021452 -0.88921701908
          -0.32799649239 -0.042133066803 -0.94241207838 -0.35761541128 -0.057997163385 -0.93068498373
          -0.23189380765 -0.029448270798 -0.97106635571 -0.26298773289 -0.04233898595 -0.96260279417
          -0.13341160119 -0.01646129787 -0.98975622654 -0.1656614095 -0.026246352121 -0.98464304209
          -0.16309523582 -0.039147410542 0.98464304209 -0.12955570221 -0.035846151412 0.98975622654
          -0.25917139649 -0.061524920166 0.96260279417 -0.22551131248 -0.061535265297 0.97106635571
          -0.35258811712 -0.083271101117 0.93068498373 -0.31915286183 -0.086592942476 0.94241207838
          -0.44238683581 -0.10416281968 0.88921701908 -0.40951949358 -0.11076206714 0.90408742428
          -0.52764606476 -0.12398567051 0.83862453699 -0.49568387866 -0.13379462063 0.85648554564
          -0.60749083757 -0.14253626764 0.77942657471 -0.57676190138 -0.15545424819 0.80009502172
          -0.68110203743 -0.15962424874 0.71223068237 -0.6519215107 -0.17551872134 0.73549437523
          -0.74772417545 -0.17507427931 0.63772630692 -0.72039157152 -0.19378212094 0.66334658861
          -0.80667364597 -0.18872779608 0.55667799711 -0.7814694047 -0.21005706489 0.58439195156
          -0.85734558105 -0.20044471323 0.46991744637 -0.83452838659 -0.22417654097 0.49944069982
          -0.89921993017 -0.21010480821 0.37833487988 -0.87902390957 -0.23599565029 0.4093645215
          -0.93186706305 -0.21760892868 0.28287008405 -0.91449946165 -0.2453931272 0.31508767605
          -0.95495206118 -0.22288009524 0.18450269103 -0.94059097767 -0.25227254629 0.21757760644
          -0.9682379365 -0.22586421669 0.084242038429 -0.95703083277 -0.25656330585 0.11783491075
          -0.97158831358 -0.22653065622 -0.016883056611 -0.96365022659 -0.25822138786 0.016883056611
          -0.96496897936 -0.22487257421 -0.11783491075 -0.96038126945 -0.25722974539 -0.084242038429
          -0.94844764471 -0.22090701759 -0.21757760644 -0.94725745916 -0.25359860063 -0.18450269103
          -0.92219400406 -0.21467463672 -0.31508767605 -0.92441356182 -0.24736516178 -0.28287008405
          -0.8864774704 -0.2062394172 -0.4093645215 -0.89208388329 -0.23859344423 -0.37833487988
          -0.84166437387 -0.19568789005 -0.49944069982 -0.85060024261 -0.22737343609 -0.46991744637
          -0.78821474314 -0.18312835693 -0.58439195156 -0.80038827658 -0.21382026374 -0.55667799711
          -0.72667688131 -0.16868966818 -0.66334658861 -0.74196326733 -0.19807299972 -0.63772630692
          -0.65768241882 -0.15251998603 -0.73549437523 -0.67592471838 -0.1802932471 -0.71223068237
          -0.58193922043 -0.13478524983 -0.80009502172 -0.60295021534 -0.16066344082 -0.77942657471
          -0.5002245307 -0.11566744745 -0.85648554564 -0.52378869057 -0.13938501477 -0.83862453699
          -0.41337683797 -0.095362730324 -0.90408742428 -0.43925237656 -0.11667630076 -0.88921701908
          -0.32228732109 -0.074079461396 -0.94241207838 -0.3502086997 -0.092770330608 -0.93068498373
          -0.22789074481 -0.052036039531 -0.97106635571 -0.25757142901 -0.06791241467 -0.96260279417
          -0.13115569949 -0.029458655044 -0.98975622654 -0.16229110956 -0.042357627302 -0.98464304209
          -0.15847277641 -0.054945033044 0.98464304209 -0.1254183203 -0.048372220248 0.98975622654
          -0.25189292431 -0.086631901562 0.96260279417 -0.21839390695 -0.083342932165 0.97106635571
          -0.34272831678 -0.11742980778 0.93068498373 -0.30912846327 -0.11745842546 0.94241207838
          -0.43004688621 -0.14702273905 0.88921701908 -0.3966909647 -0.15036864579 0.90408742428
          -0.51295256615 -0.17510700226 0.83862453699 -0.48018288612 -0.18173587322 0.85648554564
          -0.59059464931 -0.20139443874 0.77942657471 -0.55874747038 -0.21123825014 0.80009502172
          -0.66217643023 -0.22561529279 0.71223068237 -0.63157850504 -0.23857302964 0.73549437523
          -0.72696340084 -0.24752102792 0.63772630692 -0.69792872667 -0.26345974207 0.66334658861
          -0.78429073095 -0.26688686013 0.55667799711 -0.75711727142 -0.28564298153 0.58439195156
          -0.83357018232 -0.28351408243 0.46991744637 -0.80853670835 -0.30489516258 0.49944069982
          -0.87429606915 -0.29723206162 0.37833487988 -0.85165953636 -0.32101866603 0.4093645215
          -0.90605050325 -0.30790004134 0.28287008405 -0.88604319096 -0.33384811878 0.31508767605
          -0.92850762606 -0.31540852785 0.18450269103 -0.91133475304 -0.34325182438 0.21757760644
          -0.941437006 -0.31968051195 0.084242038429 -0.92727488279 -0.3491333127 0.11783491075
          -0.94470596313 -0.32067215443 -0.016883056611 -0.93369984627 -0.35143220425 0.016883056611
          -0.93828099966 -0.31837326288 -0.11783491075 -0.93054383993 -0.35012492537 -0.084242038429
          -0.92222797871 -0.31280741096 -0.21757760644 -0.9178391695 -0.34522491693 -0.18450269103
          -0.89671164751 -0.3040317297 -0.31508767605 -0.89571624994 -0.33678239584 -0.28287008405
          -0.86199384928 -0.29213628173 -0.4093645215 -0.86440205574 -0.32488405704 -0.37833487988
          -0.81843078136 -0.27724313736 -0.49944069982 -0.82421791553 -0.30965197086 -0.46991744637
          -0.76646953821 -0.2595050931 -0.58439195156 -0.77557617426 -0.29124242067 -0.55667799711
          -0.70664328337 -0.23910416663 -0.66334658861 -0.71897596121 -0.2698443532 -0.63772630692
          -0.63956588507 -0.21624971926 -0.73549437523 -0.65499812365 -0.24567729235 -0.71223068237
          -0.56592571735 -0.19117625058 -0.80009502172 -0.58429908752 -0.21898926795 -0.77942657471
          -0.48647838831 -0.16414104402 -0.85648554564 -0.50760442019 -0.19005410373 -0.83862453699
          -0.40203911066 -0.13542154431 -0.90408742428 -0.42570096254 -0.15916873515 -0.88921701908
          -0.31347438693 -0.10531242937 -0.94241207838 -0.3394292593 -0.12665006518 -0.93068498373
          -0.22169296443 -0.074122667313 -0.97106635571 -0.24967457354 -0.092831812799 -0.96260279417
          -0.12763668597 -0.042172309011 -0.98975622654 -0.15735787153 -0.058060973883 -0.98464304209
          -0.15232412517 -0.070213504136 0.98464304209 -0.12007308751 -0.060432441533 0.98975622654
          -0.24218858778 -0.11090456694 0.96260279417 -0.20917323232 -0.10434795916 0.97106635571
          -0.32956784964 -0.15045760572 0.93068498373 -0.29612699151 -0.1471927166 0.94241207838
          -0.41356533766 -0.18846674263 0.88921701908 -0.38004207611 -0.18852709234 0.90408742428
          -0.49331906438 -0.22454194725 0.83862453699 -0.46005740762 -0.22792690992 0.85648554564
          -0.56801068783 -0.25831305981 0.77942657471 -0.53535193205 -0.26498791575 0.80009502172
          -0.63687372208 -0.28943353891 0.71223068237 -0.6051530242 -0.29932975769 0.73549437523
          -0.69920158386 -0.31758400798 0.63772630692 -0.66874444485 -0.33060008287 0.66334658861
          -0.75435465574 -0.3424756825 0.55667799711 -0.72547364235 -0.3584780097 0.58439195156
          -0.80176705122 -0.36385303736 0.46991744637 -0.77475845814 -0.38267746568 0.49944069982
          -0.84095227718 -0.38149678707 0.37833487988 -0.81609326601 -0.40295010805 0.4093645215
          -0.8715081811 -0.39522588253 0.28287008405 -0.84905380011 -0.41908794641 0.31508767605
          -0.89312118292 -0.40489941835 0.18450269103 -0.87330192327 -0.43092539907 0.21757760644
          -0.90556955338 -0.41041812301 0.084242038429 -0.88858872652 -0.43834096193 0.11783491075
          -0.90872561932 -0.41172540188 -0.016883056611 -0.89475744963 -0.44125854969 0.016883056611
          -0.90255689621 -0.40880781412 -0.11783491075 -0.89174479246 -0.4396482408 -0.084242038429
          -0.88712668419 -0.40169531107 -0.21757760644 -0.87958157063 -0.43352651596 -0.18450269103
          -0.8625934124 -0.39046084881 -0.31508767605 -0.85839265585 -0.42295625806 -0.28287008405
          -0.82920873165 -0.37521973252 -0.4093645215 -0.82839548588 -0.40804585814 -0.37833487988
          -0.78731524944 -0.3561283946 -0.49944069982 -0.7898978591 -0.38894838095 -0.46991744637
          -0.73734283447 -0.33338266611 -0.58439195156 -0.74329477549 -0.36585977674 -0.55667799711
          -0.6798043251 -0.30721595883 -0.66334658861 -0.68906456232 -0.33901694417 -0.63772630692
          -0.61529004574 -0.2778968513 -0.73549437523 -0.62776356936 -0.30869534612 -0.71223068237
          -0.54446208477 -0.24572609365 -0.80009502172 -0.56002086401 -0.27520608902 -0.77942657471
          -0.46804723144 -0.21103388071 -0.85648554564 -0.48653158545 -0.23889286816 -0.83862453699
          -0.38682955503 -0.17417617142 -0.90408742428 -0.40804982185 -0.20012828708 -0.88921701908
          -0.30164247751 -0.13553118706 -0.94241207838 -0.32538092136 -0.15931010246 -0.93068498373
          -0.21336016059 -0.095495462418 -0.97106635571 -0.23937320709 -0.11685718596 -0.96260279417
          -0.12288846821 -0.054479822516 -0.98975622654 -0.15090917051 -0.073205165565 -0.98464304209
          -0.14470851421 -0.08480578661 0.98464304209 -0.11357149482 -0.071910664439 0.98975622654
          -0.2301518172 -0.13410916924 0.96260279417 -0.19793812931 -0.1243480593 0.97106635571
          -0.31323346496 -0.18203641474 0.93068498373 -0.28027364612 -0.17550946772 0.94241207838
          -0.39310091734 -0.22809571028 0.88921701908 -0.35973319411 -0.2248699218 0.90408742428
          -0.46893462539 -0.27181446552 0.83862453699 -0.43550136685 -0.27192288637 0.85648554564
          -0.53995639086 -0.31274399161 0.77942657471 -0.50680071115 -0.31618559361 0.80009502172
          -0.60543751717 -0.35046437383 0.71223068237 -0.57289963961 -0.3572037816 0.73549437523
          -0.66470605135 -0.3845885098 0.63772630692 -0.63311976194 -0.39455658197 0.66334658861
          -0.71715372801 -0.41476625204 0.55667799711 -0.68684327602 -0.42786067724 0.58439195156
          -0.76224249601 -0.44068792462 0.46991744637 -0.73351883888 -0.45677438378 0.49944069982
          -0.79950964451 -0.46208751202 0.37833487988 -0.7726675272 -0.48100093007 0.4093645215
          -0.82857269049 -0.47874549031 0.28287008405 -0.80388754606 -0.50029176474 0.31508767605
          -0.84913349152 -0.49049091339 0.18450269103 -0.82685863972 -0.51444894075 0.21757760644
          -0.86098098755 -0.49720320106 0.084242038429 -0.84134501219 -0.5233271718 0.11783491075
          -0.86399370432 -0.49881350994 -0.016883056611 -0.8471980691 -0.52683532238 0.016883056611
          -0.85814064741 -0.49530532956 -0.11783491075 -0.84435772896 -0.52493745089 -0.084242038429
          -0.84348189831 -0.48671466112 -0.21757760644 -0.83285307884 -0.51765304804 -0.18450269103
          -0.82016789913 -0.47312960029 -0.31508767605 -0.81280231476 -0.50505679846 -0.28287008405
          -0.78843790293 -0.45468962193 -0.4093645215 -0.78441107273 -0.48727798462 -0.37833487988
          -0.74861741066 -0.43158391118 -0.49944069982 -0.74797070026 -0.46449902654 -0.46991744637
          -0.70111513138 -0.40404957533 -0.58439195156 -0.70385509729 -0.43695369363 -0.55667799711
          -0.64641845226 -0.37236911058 -0.66334658861 -0.6525170207 -0.40492463112 -0.63772630692
          -0.58508861065 -0.33686766028 -0.73549437523 -0.59448325634 -0.36874046922 -0.71223068237
          -0.51775497198 -0.29790949821 -0.80009502172 -0.53034925461 -0.32877254486 -0.77942657471
          -0.4451085031 -0.25589436293 -0.85648554564 -0.4607731998 -0.28543096781 -0.83862453699
          -0.3678946197 -0.21125340462 -0.90408742428 -0.38646894693 -0.23916047812 -0.88921701908
          -0.28690561652 -0.16444469988 -0.94241207838 -0.30819901824 -0.19043588638 -0.93068498373
          -0.20297257602 -0.11594857275 -0.97106635571 -0.2267665416 -0.13975717127 -0.96260279417
          -0.11695677042 -0.066262662411 -0.98975622654 -0.14300714433 -0.087644346058 -0.98464304209
          -0.13569928706 -0.098581336439 0.98464304209 -0.10597614199 -0.082696348429 0.98975622654
          -0.2158985883 -0.15602222085 0.96260279417 -0.18479676545 -0.14315061271 0.97106635571
          -0.2938824892 -0.21186210215 0.93068498373 -0.26172110438 -0.20213596523 0.94241207838
          -0.36885073781 -0.26552799344 0.88921701908 -0.33595985174 -0.25904712081 0.90408742428
          -0.44003409147 -0.31646922231 0.83862453699 -0.40675121546 -0.31330010295 0.85648554564
          -0.50670212507 -0.36416304111 0.77942657471 -0.47336873412 -0.36433821917 0.80009502172
          -0.56817066669 -0.40812003613 0.71223068237 -0.53512883186 -0.41163772345 0.73549437523
          -0.62380903959 -0.44788917899 0.63772630692 -0.5913978219 -0.45471325517 0.66334658861
          -0.67304623127 -0.48306241632 0.55667799711 -0.64159828424 -0.49312284589 0.58439195156
          -0.71537715197 -0.51327872276 0.46991744637 -0.68521499634 -0.52647233009 0.49944069982
          -0.75036728382 -0.53822809458 0.37833487988 -0.72180056572 -0.55441945791 0.4093645215
          -0.77765762806 -0.55765455961 0.28287008405 -0.75097942352 -0.5766775012 0.31508767605
          -0.79696810246 -0.57135868073 0.18450269103 -0.77245223522 -0.59301805496 0.21757760644
          -0.80810070038 -0.57919991016 0.084242038429 -0.78599864244 -0.60327339172 0.11783491075
          -0.81094104052 -0.58109778166 -0.016883056611 -0.79147970676 -0.60733836889 0.016883056611
          -0.8054600358 -0.57703280449 -0.11783491075 -0.78883904219 -0.60517126322 -0.084242038429
          -0.79171395302 -0.56704670191 -0.21757760644 -0.77810382843 -0.59679430723 -0.18450269103
          -0.76984375715 -0.55124187469 -0.31508767605 -0.75938421488 -0.58229339123 -0.28287008405
          -0.7400739789 -0.5297806263 -0.4093645215 -0.7328723073 -0.561817348 -0.37833487988
          -0.70270997286 -0.50288307667 -0.49944069982 -0.6988401413 -0.53557628393 -0.46991744637
          -0.65813529491 -0.47082525492 -0.58439195156 -0.65763688087 -0.5038394928 -0.55667799711
          -0.6068071723 -0.43393614888 -0.66334658861 -0.60968542099 -0.46693265438 -0.63772630692
          -0.54925245047 -0.39259427786 -0.73549437523 -0.55547779799 -0.42523443699 -0.71223068237
          -0.48606163263 -0.3472238481 -0.80009502172 -0.495570153 -0.37917274237 -0.77942657471
          -0.41788315773 -0.2982904017 -0.85648554564 -0.43057730794 -0.32922020555 -0.83862453699
          -0.34541663527 -0.24629612267 -0.90408742428 -0.36116617918 -0.27588942647 -0.88921701908
          -0.26940569282 -0.1917745173 -0.94241207838 -0.28804898262 -0.21972768009 -0.93068498373
          -0.19063027203 -0.13528504968 -0.97106635571 -0.21197600663 -0.1613112092 -0.96260279417
          -0.10989871621 -0.077407360077 -0.98975622654 -0.13372787833 -0.10123946518 -0.98464304209
          -0.12538319826 -0.11140748858 0.98464304209 -0.097360171378 -0.092685617507 0.98975622654
          -0.19956612587 -0.17643269897 0.96260279417 -0.1698756963 -0.1605745554 0.97106635571
          -0.2717012167 -0.23964744806 0.93068498373 -0.24064806104 -0.22681577504 0.94241207838
          -0.34104833007 -0.30040308833 0.88921701908 -0.30895105004 -0.29072955251 0.90408742428
          -0.40689581633 -0.35807621479 0.83862453699 -0.37408381701 -0.3516600728 0.85648554564
          -0.46856796741 -0.41207498312 0.77942657471 -0.43537792563 -0.4089820683 0.80009502172
          -0.52543199062 -0.46184530854 0.71223068237 -0.49220451713 -0.46210736036 0.73549437523
          -0.57690441608 -0.50687646866 0.63772630692 -0.54398041964 -0.51049083471 0.66334658861
          -0.62245696783 -0.54670637846 0.55667799711 -0.59017431736 -0.55363595486 0.58439195156
          -0.66162228584 -0.5809263587 0.46991744637 -0.63031220436 -0.5911000371 0.49944069982
          -0.693998456 -0.60918521881 0.37833487988 -0.66398227215 -0.62249857187 0.4093645215
          -0.71925330162 -0.6311930418 0.28287008405 -0.6908389926 -0.64750945568 0.31508767605
          -0.7371276021 -0.64672398567 0.18450269103 -0.71060675383 -0.66587609053 0.21757760644
          -0.74743795395 -0.655618608 0.084242038429 -0.72308272123 -0.67740982771 0.11783491075
          -0.75007861853 -0.65778577328 -0.016883056611 -0.72813892365 -0.68199247122 0.016883056611
          -0.74502241611 -0.65320312977 -0.11783491075 -0.72572338581 -0.67957699299 -0.084242038429
          -0.73232132196 -0.64191770554 -0.21757760644 -0.71586096287 -0.67018806934 -0.18450269103
          -0.71210563183 -0.62404537201 -0.31508767605 -0.6986528635 -0.6539221406 -0.28287008405
          -0.68458271027 -0.59976953268 -0.4093645215 -0.67427557707 -0.63094609976 -0.37833487988
          -0.65003508329 -0.56933915615 -0.49944069982 -0.64297938347 -0.60149568319 -0.46991744637
          -0.60881721973 -0.53306663036 -0.58439195156 -0.60508531332 -0.56587308645 -0.55667799711
          -0.56135207415 -0.49132412672 -0.66334658861 -0.56098222733 -0.52444386482 -0.63772630692
          -0.50812667608 -0.4445399642 -0.73549437523 -0.51112270355 -0.47763314843 -0.71223068237
          -0.44968721271 -0.39319422841 -0.80009502172 -0.45601841807 -0.42592129111 -0.77942657471
          -0.38663336635 -0.33781376481 -0.85648554564 -0.39623475075 -0.36983889341 -0.83862453699
          -0.31961211562 -0.27896690369 -0.90408742428 -0.33238515258 -0.30996143818 -0.88921701908
          -0.24931123853 -0.21725745499 -0.94241207838 -0.26512485743 -0.24690335989 -0.93068498373
          -0.17645207047 -0.15331864357 -0.97106635571 -0.19514401257 -0.18131172657 -0.96260279417
          -0.10178228468 -0.087806582451 -0.98975622654 -0.12316074222 -0.11385959387 -0.98464304209
          -0.11385959387 -0.12316074222 0.98464304209 -0.087806582451 -0.10178228468 0.98975622654
          -0.18131172657 -0.19514401257 0.96260279417 -0.15331864357 -0.17645207047 0.97106635571
          -0.24690335989 -0.26512485743 0.93068498373 -0.21725745499 -0.24931123853 0.94241207838
          -0.30996143818 -0.33238515258 0.88921701908 -0.27896690369 -0.31961211562 0.90408742428
          -0.36983889341 -0.39623475075 0.83862453699 -0.33781376481 -0.38663336635 0.85648554564
          -0.42592129111 -0.45601841807 0.77942657471 -0.39319422841 -0.44968721271 0.80009502172
          -0.47763314843 -0.51112270355 0.71223068237 -0.4445399642 -0.50812667608 0.73549437523
          -0.52444386482 -0.56098222733 0.63772630692 -0.49132412672 -0.56135207415 0.66334658861
          -0.56587308645 -0.60508531332 0.55667799711 -0.53306663036 -0.60881721973 0.58439195156
          -0.60149568319 -0.64297938347 0.46991744637 -0.56933915615 -0.65003508329 0.49944069982
          -0.63094609976 -0.67427557707 0.37833487988 -0.59976953268 -0.68458271027 0.4093645215
          -0.6539221406 -0.6986528635 0.28287008405 -0.62404537201 -0.71210563183 0.31508767605
          -0.67018806934 -0.71586096287 0.18450269103 -0.64191770554 -0.73232132196 0.21757760644
          -0.67957699299 -0.72572338581 0.084242038429 -0.65320312977 -0.74502241611 0.11783491075
          -0.68199247122 -0.72813892365 -0.016883056611 -0.65778577328 -0.75007861853 0.016883056611
          -0.67740982771 -0.72308272123 -0.11783491075 -0.655618608 -0.74743795395 -0.084242038429
          -0.66587609053 -0.71060675383 -0.21757760644 -0.64672398567 -0.7371276021 -0.18450269103
          -0.64750945568 -0.6908389926 -0.31508767605 -0.6311930418 -0.71925330162 -0.28287008405
          -0.62249857187 -0.66398227215 -0.4093645215 -0.60918521881 -0.693998456 -0.37833487988
          -0.5911000371 -0.63031220436 -0.49944069982 -0.5809263587 -0.66162228584 -0.46991744637
          -0.55363595486 -0.59017431736 -0.58439195156 -0.54670637846 -0.62245696783 -0.55667799711
          -0.51049083471 -0.54398041964 -0.66334658861 -0.50687646866 -0.57690441608 -0.63772630692
          -0.46210736036 -0.49220451713 -0.73549437523 -0.46184530854 -0.52543199062 -0.71223068237
          -0.4089820683 -0.43537792563 -0.80009502172 -0.41207498312 -0.46856796741 -0.77942657471
          -0.3516600728 -0.37408381701 -0.85648554564 -0.35807621479 -0.40689581633 -0.83862453699
          -0.29072955251 -0.30895105004 -0.90408742428 -0.30040308833 -0.34104833007 -0.88921701908
          -0.22681577504 -0.24064806104 -0.94241207838 -0.23964744806 -0.2717012167 -0.93068498373
          -0.1605745554 -0.1698756963 -0.97106635571 -0.17643269897 -0.19956612587 -0.96260279417
          -0.092685617507 -0.097360171378 -0.98975622654 -0.11140748858 -0.12538319826 -0.98464304209
          -0.10123946518 -0.13372787833 0.98464304209 -0.077407360077 -0.10989871621 0.98975622654
          -0.1613112092 -0.21197600663 0.96260279417 -0.13528504968 -0.19063027203 0.97106635571
          -0.21972768009 -0.28804898262 0.93068498373 -0.1917745173 -0.26940569282 0.94241207838
          -0.27588942647 -0.36116617918 0.88921701908 -0.24629612267 -0.34541663527 0.90408742428
          -0.32922020555 -0.43057730794 0.83862453699 -0.2982904017 -0.41788315773 0.85648554564
          -0.37917274237 -0.495570153 0.77942657471 -0.3472238481 -0.48606163263 0.80009502172
          -0.42523443699 -0.55547779799 0.71223068237 -0.39259427786 -0.54925245047 0.73549437523
          -0.46693265438 -0.60968542099 0.63772630692 -0.43393614888 -0.6068071723 0.66334658861
          -0.5038394928 -0.65763688087 0.55667799711 -0.47082525492 -0.65813529491 0.58439195156
          -0.53557628393 -0.6988401413 0.46991744637 -0.50288307667 -0.70270997286 0.49944069982
          -0.561817348 -0.7328723073 0.37833487988 -0.5297806263 -0.7400739789 0.4093645215
          -0.58229339123 -0.75938421488 0.28287008405 -0.55124187469 -0.76984375715 0.31508767605
          -0.59679430723 -0.77810382843 0.18450269103 -0.56704670191 -0.79171395302 0.21757760644
          -0.60517126322 -0.78883904219 0.084242038429 -0.57703280449 -0.8054600358 0.11783491075
          -0.60733836889 -0.79147970676 -0.016883056611 -0.58109778166 -0.81094104052 0.016883056611
          -0.60327339172 -0.78599864244 -0.11783491075 -0.57919991016 -0.80810070038 -0.084242038429
          -0.59301805496 -0.77245223522 -0.21757760644 -0.57135868073 -0.79696810246 -0.18450269103
          -0.5766775012 -0.75097942352 -0.31508767605 -0.55765455961 -0.77765762806 -0.28287008405
          -0.55441945791 -0.72180056572 -0.4093645215 -0.53822809458 -0.75036728382 -0.37833487988
          -0.52647233009 -0.68521499634 -0.49944069982 -0.51327872276 -0.71537715197 -0.46991744637