<VTKFile type="UnstructuredGrid" version="1.0" byte_order="LittleEndian" header_type="UInt64">
  <UnstructuredGrid>
    <Piece NumberOfPoints="1331" NumberOfCells="5000">
      <PointData Scalars="RTData">
        <DataArray type="Float64" Name="RTData" format="ascii" RangeMin="0.031413190505" RangeMax="0.99765009039">
          0.20171098148 0.3050681563 0.41357576146 0.46171430279 0.42052054405 0.31513411859
          0.20953346701 0.16772205689 0.21491011451 0.3222370288 0.42429994134 0.38723620246
          0.49072101537 0.59934503892 0.64757731382 0.606444457 0.50107916313 0.39545736593
          0.35358507493 0.40067939197 0.50788988085 0.60982517635 0.58207760839 0.6856788467
          0.79440907871 0.8427268477 0.80164957047 0.69630353591 0.59066246538 0.54873461583
          0.59574343878 0.70284771919 0.80466657526 0.66834678369 0.77204174154 0.8808574957
          0.92924409754 0.8882115308 0.78288100748 0.67722443973 0.63525185866 0.68219184875
          0.78921062806 0.89093575758 0.59395096583 0.69770683962 0.80657813128 0.85500947167
          0.81400596394 0.70868553835 0.60301886587 0.56101722577 0.60791248434 0.71487569809
          0.8165399327 0.40416971375 0.50794671038 0.61683727713 0.66528412875 0.62429070473
          0.51897377477 0.41330361366 0.37129188986 0.41817163019 0.52511557586 0.62675868764
          0.21417421453 0.31793008131 0.42680137298 0.47523270635 0.43422919862 0.32890878004
          0.22324211457 0.18124047448 0.22813572603 0.33509893978 0.43676318141 0.13916077333
          0.24285571715 0.35167147132 0.40005806614 0.35902550641 0.25369498309 0.14803841535
          0.10606583427 0.15300582437 0.26002460368 0.3617497332 0.2244794509 0.32808068219
          0.43681092122 0.48512869197 0.44405139544 0.33870537141 0.2330643149 0.19113644432
          0.23814526726 0.34524955469 0.44706841777 0.41814015893 0.52162497534 0.63024899539
          0.67848127029 0.63734841347 0.53198312311 0.4263613224 0.3844890314 0.43158335545
          0.53879384083 0.64072913282 0.60237111765 0.70572830649 0.81423591165 0.86237444597
          0.82118070827 0.71579426878 0.61019360318 0.5683822141 0.6155702647 0.72289717899
          0.82496009153 0.20723073623 0.31071553511 0.41933956567 0.46757183706 0.42643898375
          0.32107368638 0.21545188567 0.17357960869 0.22067392574 0.3278844076 0.4298197031
          0.39288358127 0.4965211931 0.60528460671 0.65362909261 0.6125691498 0.50722914847
          0.40158205874 0.35963685372 0.40661895976 0.5136900588 0.61547255516 0.5878414126
          0.69161841449 0.80050897598 0.8489558276 0.8079624176 0.70264548414 0.59697531251
          0.55496358871 0.60184333605 0.70878727296 0.81043038649 0.67420432147 0.77809353436
          0.8870864756 0.93561570785 0.89467584386 0.78937749302 0.68368875279 0.64162348298
          0.68842081463 0.79526239283 0.89679328133 0.59986940552 0.70383153242 0.81289097842
          0.86147378473 0.8205687018 0.71528241214 0.60958161074 0.56748153883 0.61422533147
          0.72100039089 0.82245837941 0.41010927453 0.51409669571 0.62317922536 0.67178060027
          0.63088757852 0.52560549098 0.41990049446 0.37778836138 0.4245135714 0.53126556032
          0.63269825543 0.22009263319 0.32405477412 0.43311422011 0.48169702116 0.44079194349
          0.33550565383 0.22980485243 0.18770478753 0.23444857317 0.34122363259 0.4426816211
          0.14501829708 0.24890750997 0.35790043719 0.40642969047 0.36548981947 0.26019146863
          0.15450272841 0.11243744457 0.15923480427 0.26607636844 0.36760727097 0.23024326212
          0.33402024998 0.44291081849 0.49135766485 0.45036423908 0.34504731964 0.23937716204
          0.19736542421 0.24424516453 0.35118910846 0.45283222549 0.42378754476 0.52742515241
          0.63618856318 0.68453304908 0.64347310627 0.53813310932 0.43248601521 0.39054081019
          0.43752292325 0.5445940179 0.64637651163 0.60789087941 0.7113756853 0.81999972287
          0.86823199777 0.82709912693 0.72173383657 0.61611204288 0.57423975187 0.62133407593
          0.7285445578 0.83047984628 0.15471124649 0.25831250583 0.36704273785 0.41536050684
          0.37428320155 0.26893718102 0.16329611049 0.12136826796 0.1683770909 0.27548136431
          0.3773002344 0.34048053798 0.44425753636 0.55314810486 0.60159495298 0.56060152895
          0.455284599 0.34961443789 0.30760271409 0.35448245441 0.46142640184 0.56306951186
          0.53554457777 0.63948190913 0.74851874744 0.79708334979 0.75616643008 0.65087604523
          0.54517933551 0.50309109885 0.54985309699 0.65665078163 0.75813355165 0.62199298073
          0.72605939472 0.83521396974 0.88387335048 0.84301802691 0.73774901558 0.63203094987
          0.58988111861 0.63654832279 0.74322826722 0.84458196864 0.54771363034 0.65186391157
          0.7610949909 0.80981596778 0.76900067049 0.66374554354 0.55801359345 0.51582373942
          0.56242935097 0.66903277004 0.77030260423 0.35797277619 0.46215214799 0.57140977944
          0.62015212283 0.57935071693 0.47410039691 0.36836361885 0.32615988395 0.3727441395
          0.47932101348 0.58056175008 0.16793685801 0.27208715327 0.38131824662 0.43003921649
          0.38922392621 0.28396878523 0.17823682112 0.13604697059 0.18265258565 0.28925601174
          0.39052584592 0.092806956347 0.19687335631 0.30602794535 0.35468732609 0.31383201655
          0.2085629912 0.10284491146 0.060695087208 0.1073622984 0.21404224284 0.31539593023
          0.17794642729 0.28188374463 0.39092058294 0.43948517126 0.39856825857 0.29327788072
          0.18758117451 0.1454929464 0.19225493599 0.29905261713 0.40053538715 0.37138449444
          0.47516149633 0.58405206484 0.63249890945 0.59150548542 0.48618856072 0.38051839436
          0.33850667056 0.38538641789 0.49233036094 0.59397346833 0.55537140369 0.658972642
          0.76770288804 0.81602065703 0.77494335175 0.66959733122 0.56395626769 0.52202841464
          0.56903723408 0.6761415145 0.77796038459 0.25039639192 0.35409136379 0.46290709692
          0.51129370051 0.47026113202 0.36493062973 0.25927403394 0.21730145286 0.26424144296
          0.37126022227 0.47298536581 0.43625940295 0.54014860882 0.64914155006 0.69767079634
          0.65673091832 0.55143257099 0.44574383076 0.40367855745 0.45047589611 0.55731747431
          0.65884836982 0.63140894385 0.73547534382 0.84462993285 0.8932893136 0.85243399003
          0.7471649787 0.64144689897 0.59929707471 0.64596428591 0.75264420229 0.85399793176
          0.71792617966 0.82213522406 0.93141996159 0.98018410627 0.93939685822 0.8341514363
          0.72840975313 0.68619185335 0.73275430062 0.83930411058 0.94051515355 0.64369155379
          0.74799330094 0.8573625789 0.90619479909 0.86545178469 0.76022170572 0.65446467961
          0.61220254618 0.65869691793 0.76516215941 0.86628052768 0.45396621438 0.55830011648
          0.66769871992 0.71655454355 0.67582688612 0.57060214351 0.46483978804 0.42256231168
          0.46903307298 0.57546898197 0.67655518476 0.26391478146 0.36821654264 0.47758581358
          0.52641802676 0.48567501587 0.38044496144 0.2746879213 0.23242580189 0.27892015962
          0.38538540812 0.48650376849 0.1887401693 0.2929492137 0.40223392318 0.45099806435
          0.41021081981 0.30496541192 0.19922374277 0.15700581494 0.20356829026 0.31011807217
          0.41132912916 0.27381077935 0.37787717931 0.4870317666 0.53569114909 0.49483583166
          0.3895668142 0.28384873446 0.24169891021 0.2883661214 0.39504605181 0.49639975389
          0.46716335942 0.57105257231 0.68004550653 0.72857475281 0.68763487479 0.58233653097
          0.47664778899 0.43458252093 0.48137985783 0.58822143779 0.68975234032 0.65105654212
          0.75475151399 0.8635672401 0.91195384194 0.87092127519 0.76559077992 0.65993418413
          0.61796161708 0.66490160718 0.77192037246 0.87364550198 0.12439724978 0.22815311656
          0.33702442225 0.38545574861 0.34445224089 0.23913181529 0.13346514982 0.091463509728
          0.13835876128 0.24532200308 0.34698622367 0.31032116273 0.41428328963 0.52334274089
          0.57192554193 0.53102045901 0.42573417636 0.32003336794 0.27793330305 0.32467708868
          0.43145215511 0.53291014012 0.50552626831 0.6096765434 0.71890763675 0.76762861364
          0.72681331635 0.62155818939 0.51582623229 0.47363637826 0.52024199156 0.6268454159
          0.72811523606 0.59208822952 0.69638998368 0.80575926164 0.85459145378 0.81384843938
          0.70861838846 0.60286136235 0.56059922892 0.60709360067 0.71355884215 0.81467721042
          0.51788266792 0.62228284163 0.73174189119 0.78064638026 0.73995034835 0.63473658001
          0.52896326079 0.48665415539 0.53307625125 0.6394517001 0.74047164356 0.32816741046
          0.43260172535 0.54209193061 0.59102150272 0.55034174989 0.44513363347 0.33935465532
          0.29702925682 0.34342628367 0.44977059084 0.55075638434 0.13810589734 0.24250608332
          0.35196513288 0.40086963597 0.36017359004 0.25495983573 0.14918649898 0.10687738306
          0.15329949996 0.25967494179 0.36069488525 0.062902198118 0.1672039593 0.27657322323
          0.32540544342 0.28466242902 0.17943236407 0.073675323935 0.031413190505 0.077907590305
          0.18437281777 0.28549118603 0.14792809767 0.25207839293 0.36130947225 0.41003044914
          0.36921515184 0.26396002489 0.15822806078 0.11603821025 0.16264382531 0.2692472514
          0.37051707156 0.3412251192 0.4451872496 0.55424669911 0.6028294984 0.56192442249
          0.45663813984 0.35093732441 0.30883725952 0.35558105918 0.46235611509 0.5638141001
          0.52505740348 0.62881328078 0.73768455842 0.78611589881 0.74511239108 0.63979196548
          0.53412530352 0.49212366255 0.5390189255 0.64598213925 0.74764638789 0.26731484077
          0.37109184265 0.47998240941 0.52842925577 0.48743583174 0.38211889828 0.27644874068
          0.23443701688 0.2813167572 0.38826070814 0.48990381553 0.4532598818 0.55724729861
          0.66632981861 0.71493119352 0.67403818579 0.5687560965 0.46305109823 0.42093896165
          0.46766417517 0.5744161676 0.67584884868 0.64848425809 0.75266364041 0.86192125433
          0.91066360474 0.86986219182 0.76461188933 0.65887510075 0.61667136585 0.66325562141
          0.76983249889 0.87107321795 0.73506172966 0.83939563527 0.94879425273 0.99765009039
          0.95692239088 0.85169766931 0.74593529982 0.70365783748 0.75012860579 0.85656449374
          0.95765071757 0.6608662465 0.76530058244 0.87479078068 0.92372033175 0.88304059646
          0.77783248004 0.67205350539 0.62972810689 0.67612511971 0.78246944091 0.88345522039
          0.47115449344 0.57562363849 0.68514561653 0.73410077656 0.69343764642 0.58823529412
          0.48245055185 0.44010853066 0.48647997397 0.59279250397 0.69374346733 0.2810894882
          0.38552381011 0.49501401405 0.54394358397 0.50326383464 0.39805572173 0.29227674709
          0.24995133456 0.29634836141 0.40269267559 0.50367846866 0.20587570527 0.31020961088
          0.41960821432 0.46846404496 0.42773638052 0.32251164492 0.21674927543 0.17447179907
          0.2209425814 0.32737848338 0.42846468617 0.29088609359 0.39506546189 0.50432309903
          0.55306544374 0.51226403345 0.40701371782 0.30127693625 0.25907320135 0.3056574569
          0.41223432737 0.5134750666 0.48416384178 0.58815125858 0.69723378911 0.74583516401
          0.70494214226 0.59966005297 0.4939550569 0.45184292162 0.49856813679 0.60532012407
          0.70675281917 0.66797499096 0.77175199284 0.88064255434 0.92908940596 0.88809596791
          0.78277904847 0.67710889087 0.63509716707 0.68197690739 0.78892085131 0.89056396484
          0.12439724978 0.22815311656 0.33702442225 0.38545574861 0.34445224089 0.23913181529
          0.13346514982 0.091463509728 0.13835876128 0.24532200308 0.34698622367 0.31032116273
          0.41428328963 0.52334274089 0.57192554193 0.53102045901 0.42573417636 0.32003336794
          0.27793330305 0.32467708868 0.43145215511 0.53291014012 0.50552626831 0.6096765434
          0.71890763675 0.76762861364 0.72681331635 0.62155818939 0.51582623229 0.47363637826
          0.52024199156 0.6268454159 0.72811523606 0.59208822952 0.69638998368 0.80575926164
          0.85459145378 0.81384843938 0.70861838846 0.60286136235 0.56059922892 0.60709360067
          0.71355884215 0.81467721042 0.51788266792 0.62228284163 0.73174189119 0.78064638026
          0.73995034835 0.63473658001 0.52896326079 0.48665415539 0.53307625125 0.6394517001
          0.74047164356 0.32816741046 0.43260172535 0.54209193061 0.59102150272 0.55034174989
          0.44513363347 0.33935465532 0.29702925682 0.34342628367 0.44977059084 0.55075638434
          0.13810589734 0.24250608332 0.35196513288 0.40086963597 0.36017359004 0.25495983573
          0.14918649898 0.10687738306 0.15329949996 0.25967494179 0.36069488525 0.062902198118
          0.1672039593 0.27657322323 0.32540544342 0.28466242902 0.17943236407 0.073675323935
          0.031413190505 0.077907590305 0.18437281777 0.28549118603 0.14792809767 0.25207839293
          0.36130947225 0.41003044914 0.36921515184 0.26396002489 0.15822806078 0.11603821025
          0.16264382531 0.2692472514 0.37051707156 0.3412251192 0.4451872496 0.55424669911
          0.6028294984 0.56192442249 0.45663813984 0.35093732441 0.30883725952 0.35558105918
          0.46235611509 0.5638141001 0.52505740348 0.62881328078 0.73768455842 0.78611589881
          0.74511239108 0.63979196548 0.53412530352 0.49212366255 0.5390189255 0.64598213925
          0.74764638789 0.25039639192 0.35409136379 0.46290709692 0.51129370051 0.47026113202
          0.36493062973 0.25927403394 0.21730145286 0.26424144296 0.37126022227 0.47298536581
          0.43625940295 0.54014860882 0.64914155006 0.69767079634 0.65673091832 0.55143257099
          0.44574383076 0.40367855745 0.45047589611 0.55731747431 0.65884836982 0.63140894385
          0.73547534382 0.84462993285 0.8932893136 0.85243399003 0.7471649787 0.64144689897
          0.59929707471 0.64596428591 0.75264420229 0.85399793176 0.71792617966 0.82213522406
          0.93141996159 0.98018410627 0.93939685822 0.8341514363 0.72840975313 0.68619185335
          0.73275430062 0.83930411058 0.94051515355 0.64369155379 0.74799330094 0.8573625789
          0.90619479909 0.86545178469 0.76022170572 0.65446467961 0.61220254618 0.65869691793
          0.76516215941 0.86628052768 0.45396621438 0.55830011648 0.66769871992 0.71655454355
          0.67582688612 0.57060214351 0.46483978804 0.42256231168 0.46903307298 0.57546898197
          0.67655518476 0.26391478146 0.36821654264 0.47758581358 0.52641802676 0.48567501587
          0.38044496144 0.2746879213 0.23242580189 0.27892015962 0.38538540812 0.48650376849
          0.1887401693 0.2929492137 0.40223392318 0.45099806435 0.41021081981 0.30496541192
          0.19922374277 0.15700581494 0.20356829026 0.31011807217 0.41132912916 0.27381077935
          0.37787717931 0.4870317666 0.53569114909 0.49483583166 0.3895668142 0.28384873446
          0.24169891021 0.2883661214 0.39504605181 0.49639975389 0.46716335942 0.57105257231
          0.68004550653 0.72857475281 0.68763487479 0.58233653097 0.47664778899 0.43458252093
          0.48137985783 0.58822143779 0.68975234032 0.65105654212 0.75475151399 0.8635672401
          0.91195384194 0.87092127519 0.76559077992 0.65993418413 0.61796161708 0.66490160718
          0.77192037246 0.87364550198 0.15471124649 0.25831250583 0.36704273785 0.41536050684
          0.37428320155 0.26893718102 0.16329611049 0.12136826796 0.1683770909 0.27548136431
          0.3773002344 0.34048053798 0.44425753636 0.55314810486 0.60159495298 0.56060152895
          0.455284599 0.34961443789 0.30760271409 0.35448245441 0.46142640184 0.56306951186
          0.53554457777 0.63948190913 0.74851874744 0.79708334979 0.75616643008 0.65087604523
          0.54517933551 0.50309109885 0.54985309699 0.65665078163 0.75813355165 0.62199298073
          0.72605939472 0.83521396974 0.88387335048 0.84301802691 0.73774901558 0.63203094987
          0.58988111861 0.63654832279 0.74322826722 0.84458196864 0.54771363034 0.65186391157
          0.7610949909 0.80981596778 0.76900067049 0.66374554354 0.55801359345 0.51582373942
          0.56242935097 0.66903277004 0.77030260423 0.35797277619 0.46215214799 0.57140977944
          0.62015212283 0.57935071693 0.47410039691 0.36836361885 0.32615988395 0.3727441395
          0.47932101348 0.58056175008 0.16793685801 0.27208715327 0.38131824662 0.43003921649
          0.38922392621 0.28396878523 0.17823682112 0.13604697059 0.18265258565 0.28925601174
          0.39052584592 0.092806956347 0.19687335631 0.30602794535 0.35468732609 0.31383201655
          0.2085629912 0.10284491146 0.060695087208 0.1073622984 0.21404224284 0.31539593023
          0.17794642729 0.28188374463 0.39092058294 0.43948517126 0.39856825857 0.29327788072
          0.18758117451 0.1454929464 0.19225493599 0.29905261713 0.40053538715 0.37138449444
          0.47516149633 0.58405206484 0.63249890945 0.59150548542 0.48618856072 0.38051839436
          0.33850667056 0.38538641789 0.49233036094 0.59397346833 0.55537140369 0.658972642
          0.76770288804 0.81602065703 0.77494335175 0.66959733122 0.56395626769 0.52202841464
          0.56903723408 0.6761415145 0.77796038459 0.20723073623 0.31071553511 0.41933956567
          0.46757183706 0.42643898375 0.32107368638 0.21545188567 0.17357960869 0.22067392574
          0.3278844076 0.4298197031 0.39288358127 0.4965211931 0.60528460671 0.65362909261
          0.6125691498 0.50722914847 0.40158205874 0.35963685372 0.40661895976 0.5136900588
          0.61547255516 0.5878414126 0.69161841449 0.80050897598 0.8489558276 0.8079624176
          0.70264548414 0.59697531251 0.55496358871 0.60184333605 0.70878727296 0.81043038649
          0.67420432147 0.77809353436 0.8870864756 0.93561570785 0.89467584386 0.78937749302
          0.68368875279 0.64162348298 0.68842081463 0.79526239283 0.89679328133 0.59986940552
          0.70383153242 0.81289097842 0.86147378473 0.8205687018 0.71528241214 0.60958161074
          0.56748153883 0.61422533147 0.72100039089 0.82245837941 0.41010927453 0.51409669571
          0.62317922536 0.67178060027 0.63088757852 0.52560549098 0.41990049446 0.37778836138
          0.4245135714 0.53126556032 0.63269825543 0.22009263319 0.32405477412 0.43311422011
          0.48169702116 0.44079194349 0.33550565383 0.22980485243 0.18770478753 0.23444857317
          0.34122363259 0.4426816211 0.14501829708 0.24890750997 0.35790043719 0.40642969047
          0.36548981947 0.26019146863 0.15450272841 0.11243744457 0.15923480427 0.26607636844
          0.36760727097 0.23024326212 0.33402024998 0.44291081849 0.49135766485 0.45036423908
          0.34504731964 0.23937716204 0.19736542421 0.24424516453 0.35118910846 0.45283222549
          0.42378754476 0.52742515241 0.63618856318 0.68453304908 0.64347310627 0.53813310932
          0.43248601521 0.39054081019 0.43752292325 0.5445940179 0.64637651163 0.60789087941
          0.7113756853 0.81999972287 0.86823199777 0.82709912693 0.72173383657 0.61611204288
          0.57423975187 0.62133407593 0.7285445578 0.83047984628 0.20171098148 0.3050681563
          0.41357576146 0.46171430279 0.42052054405 0.31513411859 0.20953346701 0.16772205689
          0.21491011451 0.3222370288 0.42429994134 0.38723620246 0.49072101537 0.59934503892
          0.64757731382 0.606444457 0.50107916313 0.39545736593 0.35358507493 0.40067939197
          0.50788988085 0.60982517635 0.58207760839 0.6856788467 0.79440907871 0.8427268477
          0.80164957047 0.69630353591 0.59066246538 0.54873461583 0.59574343878 0.70284771919
          0.80466657526 0.66834678369 0.77204174154 0.8808574957 0.92924409754 0.8882115308
          0.78288100748 0.67722443973 0.63525185866 0.68219184875 0.78921062806 0.89093575758
          0.59395096583 0.69770683962 0.80657813128 0.85500947167 0.81400596394 0.70868553835
          0.60301886587 0.56101722577 0.60791248434 0.71487569809 0.8165399327 0.40416971375
          0.50794671038 0.61683727713 0.66528412875 0.62429070473 0.51897377477 0.41330361366
          0.37129188986 0.41817163019 0.52511557586 0.62675868764 0.21417421453 0.31793008131
          0.42680137298 0.47523270635 0.43422919862 0.32890878004 0.22324211457 0.18124047448
          0.22813572603 0.33509893978 0.43676318141 0.13916077333 0.24285571715 0.35167147132
          0.40005806614 0.35902550641 0.25369498309 0.14803841535 0.10606583427 0.15300582437
          0.26002460368 0.3617497332 0.2244794509 0.32808068219 0.43681092122 0.48512869197
          0.44405139544 0.33870537141 0.2330643149 0.19113644432 0.23814526726 0.34524955469
          0.44706841777 0.41814015893 0.52162497534 0.63024899539 0.67848127029 0.63734841347
          0.53198312311 0.4263613224 0.3844890314 0.43158335545 0.53879384083 0.64072913282
          0.60237111765 0.70572830649 0.81423591165 0.86237444597 0.82118070827 0.71579426878
          0.61019360318 0.5683822141 0.6155702647 0.72289717899 0.82496009153
        </DataArray>
      </PointData>
      <CellData>
      </CellData>
      <Points>
        <DataArray type="Float32" Name="Points" NumberOfComponents="3" format="ascii" RangeMin="0" RangeMax="8.6602540378">
          -5 -5 -5 -4 -5 -5
          -3 -5 -5 -2 -5 -5
          -1 -5 -5 0 -5 -5
          1 -5 -5 2 -5 -5
          3 -5 -5 4 -5 -5
          5 -5 -5 -5 -4 -5
          -4 -4 -5 -3 -4 -5
          -2 -4 -5 -1 -4 -5
          0 -4 -5 1 -4 -5
          2 -4 -5 3 -4 -5
          4 -4 -5 5 -4 -5
          -5 -3 -5 -4 -3 -5
          -3 -3 -5 -2 -3 -5
          -1 -3 -5 0 -3 -5
          1 -3 -5 2 -3 -5
          3 -3 -5 4 -3 -5
          5 -3 -5 -5 -2 -5
          -4 -2 -5 -3 -2 -5
          -2 -2 -5 -1 -2 -5
          0 -2 -5 1 -2 -5
          2 -2 -5 3 -2 -5
          4 -2 -5 5 -2 -5
          -5 -1 -5 -4 -1 -5
          -3 -1 -5 -2 -1 -5
          -1 -1 -5 0 -1 -5
          1 -1 -5 2 -1 -5
          3 -1 -5 4 -1 -5
          5 -1 -5 -5 0 -5
          -4 0 -5 -3 0 -5
          -2 0 -5 -1 0 -5
          0 0 -5 1 0 -5
          2 0 -5 3 0 -5
          4 0 -5 5 0 -5
          -5 1 -5 -4 1 -5
          -3 1 -5 -2 1 -5
          -1 1 -5 0 1 -5
          1 1 -5 2 1 -5
          3 1 -5 4 1 -5
          5 1 -5 -5 2 -5
          -4 2 -5 -3 2 -5
          -2 2 -5 -1 2 -5
          0 2 -5 1 2 -5
          2 2 -5 3 2 -5
          4 2 -5 5 2 -5
          -5 3 -5 -4 3 -5
          -3 3 -5 -2 3 -5
          -1 3 -5 0 3 -5
          1 3 -5 2 3 -5
          3 3 -5 4 3 -5
          5 3 -5 -5 4 -5
          -4 4 -5 -3 4 -5
          -2 4 -5 -1 4 -5
          0 4 -5 1 4 -5
          2 4 -5 3 4 -5
          4 4 -5 5 4 -5
          -5 5 -5 -4 5 -5
          -3 5 -5 -2 5 -5
          -1 5 -5 0 5 -5
          1 5 -5 2 5 -5
          3 5 -5 4 5 -5
          5 5 -5 -5 -5 -4
          -4 -5 -4 -3 -5 -4
          -2 -5 -4 -1 -5 -4
          0 -5 -4 1 -5 -4
          2 -5 -4 3 -5 -4
          4 -5 -4 5 -5 -4
          -5 -4 -4 -4 -4 -4
          -3 -4 -4 -2 -4 -4
          -1 -4 -4 0 -4 -4
          1 -4 -4 2 -4 -4
          3 -4 -4 4 -4 -4
          5 -4 -4 -5 -3 -4
          -4 -3 -4 -3 -3 -4
          -2 -3 -4 -1 -3 -4
          0 -3 -4 1 -3 -4
          2 -3 -4 3 -3 -4
          4 -3 -4 5 -3 -4
          -5 -2 -4 -4 -2 -4
          -3 -2 -4 -2 -2 -4
          -1 -2 -4 0 -2 -4
          1 -2 -4 2 -2 -4
          3 -2 -4 4 -2 -4
          5 -2 -4 -5 -1 -4
          -4 -1 -4 -3 -1 -4
          -2 -1 -4 -1 -1 -4
          0 -1 -4 1 -1 -4
          2 -1 -4 3 -1 -4
          4 -1 -4 5 -1 -4
          -5 0 -4 -4 0 -4
          -3 0 -4 -2 0 -4
          -1 0 -4 0 0 -4
          1 0 -4 2 0 -4
          3 0 -4 4 0 -4
          5 0 -4 -5 1 -4
          -4 1 -4 -3 1 -4
          -2 1 -4 -1 1 -4
          0 1 -4 1 1 -4
          2 1 -4 3 1 -4
          4 1 -4 5 1 -4
          -5 2 -4 -4 2 -4
          -3 2 -4 -2 2 -4
          -1 2 -4 0 2 -4
          1 2 -4 2 2 -4
          3 2 -4 4 2 -4
          5 2 -4 -5 3 -4
          -4 3 -4 -3 3 -4
          -2 3 -4 -1 3 -4
          0 3 -4 1 3 -4
          2 3 -4 3 3 -4
          4 3 -4 5 3 -4
          -5 4 -4 -4 4 -4
          -3 4 -4 -2 4 -4
          -1 4 -4 0 4 -4
          1 4 -4 2 4 -4
          3 4 -4 4 4 -4
          5 4 -4 -5 5 -4
          -4 5 -4 -3 5 -4
          -2 5 -4 -1 5 -4
          0 5 -4 1 5 -4
          2 5 -4 3 5 -4
          4 5 -4 5 5 -4
          -5 -5 -3 -4 -5 -3
          -3 -5 -3 -2 -5 -3
          -1 -5 -3 0 -5 -3
          1 -5 -3 2 -5 -3
          3 -5 -3 4 -5 -3
          5 -5 -3 -5 -4 -3
          -4 -4 -3 -3 -4 -3
          -2 -4 -3 -1 -4 -3
          0 -4 -3 1 -4 -3
          2 -4 -3 3 -4 -3
          4 -4 -3 5 -4 -3
          -5 -3 -3 -4 -3 -3
          -3 -3 -3 -2 -3 -3
          -1 -3 -3 0 -3 -3
          1 -3 -3 2 -3 -3
          3 -3 -3 4 -3 -3
          5 -3 -3 -5 -2 -3
          -4 -2 -3 -3 -2 -3
          -2 -2 -3 -1 -2 -3
          0 -2 -3 1 -2 -3
          2 -2 -3 3 -2 -3
          4 -2 -3 5 -2 -3
          -5 -1 -3 -4 -1 -3
          -3 -1 -3 -2 -1 -3
          -1 -1 -3 0 -1 -3
          1 -1 -3 2 -1 -3
          3 -1 -3 4 -1 -3
          5 -1 -3 -5 0 -3
          -4 0 -3 -3 0 -3
          -2 0 -3 -1 0 -3
          0 0 -3 1 0 -3
          2 0 -3 3 0 -3
          4 0 -3 5 0 -3
          -5 1 -3 -4 1 -3
          -3 1 -3 -2 1 -3
          -1 1 -3 0 1 -3
          1 1 -3 2 1 -3
          3 1 -3 4 1 -3
          5 1 -3 -5 2 -3
          -4 2 -3 -3 2 -3
          -2 2 -3 -1 2 -3
          0 2 -3 1 2 -3
          2 2 -3 3 2 -3
          4 2 -3 5 2 -3
          -5 3 -3 -4 3 -3
          -3 3 -3 -2 3 -3
          -1 3 -3 0 3 -3
          1 3 -3 2 3 -3
          3 3 -3 4 3 -3
          5 3 -3 -5 4 -3
          -4 4 -3 -3 4 -3
          -2 4 -3 -1 4 -3
          0 4 -3 1 4 -3
          2 4 -3 3 4 -3
          4 4 -3 5 4 -3
          -5 5 -3 -4 5 -3
          -3 5 -3 -2 5 -3
          -1 5 -3 0 5 -3
          1 5 -3 2 5 -3
          3 5 -3 4 5 -3
          5 5 -3 -5 -5 -2
          -4 -5 -2 -3 -5 -2
          -2 -5 -2 -1 -5 -2
          0 -5 -2 1 -5 -2
          2 -5 -2 3 -5 -2
          4 -5 -2 5 -5 -2
          -5 -4 -2 -4 -4 -2
          -3 -4 -2 -2 -4 -2
          -1 -4 -2 0 -4 -2
          1 -4 -2 2 -4 -2
          3 -4 -2 4 -4 -2
          5 -4 -2 -5 -3 -2
          -4 -3 -2 -3 -3 -2
          -2 -3 -2 -1 -3 -2
          0 -3 -2 1 -3 -2
          2 -3 -2 3 -3 -2
          4 -3 -2 5 -3 -2
          -5 -2 -2 -4 -2 -2
          -3 -2 -2 -2 -2 -2
          -1 -2 -2 0 -2 -2
          1 -2 -2 2 -2 -2
          3 -2 -2 4 -2 -2
          5 -2 -2 -5 -1 -2
          -4 -1 -2 -3 -1 -2
          -2 -1 -2 -1 -1 -2
          0 -1 -2 1 -1 -2
          2 -1 -2 3 -1 -2
          4 -1 -2 5 -1 -2
          -5 0 -2 -4 0 -2
          -3 0 -2 -2 0 -2
          -1 0 -2 0 0 -2
          1 0 -2 2 0 -2
          3 0 -2 4 0 -2
          5 0 -2 -5 1 -2
          -4 1 -2 -3 1 -2
          -2 1 -2 -1 1 -2
          0 1 -2 1 1 -2
          2 1 -2 3 1 -2
          4 1 -2 5 1 -2
          -5 2 -2 -4 2 -2
          -3 2 -2 -2 2 -2
          -1 2 -2 0 2 -2
          1 2 -2 2 2 -2
          3 2 -2 4 2 -2
          5 2 -2 -5 3 -2
          -4 3 -2 -3 3 -2
          -2 3 -2 -1 3 -2
          0 3 -2 1 3 -2
          2 3 -2 3 3 -2
          4 3 -2 5 3 -2
          -5 4 -2 -4 4 -2
          -3 4 -2 -2 4 -2
          -1 4 -2 0 4 -2
          1 4 -2 2 4 -2
          3 4 -2 4 4 -2
          5 4 -2 -5 5 -2
          -4 5 -2 -3 5 -2
          -2 5 -2 -1 5 -2
          0 5 -2 1 5 -2
          2 5 -2 3 5 -2
          4 5 -2 5 5 -2
          -5 -5 -1 -4 -5 -1
          -3 -5 -1 -2 -5 -1
          -1 -5 -1 0 -5 -1
          1 -5 -1 2 -5 -1
          3 -5 -1 4 -5 -1
          5 -5 -1 -5 -4 -1
          -4 -4 -1 -3 -4 -1
          -2 -4 -1 -1 -4 -1
          0 -4 -1 1 -4 -1
          2 -4 -1 3 -4 -1
          4 -4 -1 5 -4 -1
          -5 -3 -1 -4 -3 -1
          -3 -3 -1 -2 -3 -1
          -1 -3 -1 0 -3 -1
          1 -3 -1 2 -3 -1
          3 -3 -1 4 -3 -1
          5 -3 -1 -5 -2 -1
          -4 -2 -1 -3 -2 -1
          -2 -2 -1 -1 -2 -1
          0 -2 -1 1 -2 -1
          2 -2 -1 3 -2 -1
          4 -2 -1 5 -2 -1
          -5 -1 -1 -4 -1 -1
          -3 -1 -1 -2 -1 -1
          -1 -1 -1 0 -1 -1
          1 -1 -1 2 -1 -1
          3 -1 -1 4 -1 -1
          5 -1 -1 -5 0 -1
          -4 0 -1 -3 0 -1
          -2 0 -1 -1 0 -1
          0 0 -1 1 0 -1
          2 0 -1 3 0 -1
          4 0 -1 5 0 -1
          -5 1 -1 -4 1 -1
          -3 1 -1 -2 1 -1
          -1 1 -1 0 1 -1
          1 1 -1 2 1 -1
          3 1 -1 4 1 -1
          5 1 -1 -5 2 -1
          -4 2 -1 -3 2 -1
          -2 2 -1 -1 2 -1
          0 2 -1 1 2 -1
          2 2 -1 3 2 -1
          4 2 -1 5 2 -1
          -5 3 -1 -4 3 -1
          -3 3 -1 -2 3 -1
          -1 3 -1 0 3 -1
          1 3 -1 2 3 -1
          3 3 -1 4 3 -1
          5 3 -1 -5 4 -1
          -4 4 -1 -3 4 -1
          -2 4 -1 -1 4 -1
          0 4 -1 1 4 -1
          2 4 -1 3 4 -1
          4 4 -1 5 4 -1
          -5 5 -1 -4 5 -1
          -3 5 -1 -2 5 -1
          -1 5 -1 0 5 -1
          1 5 -1 2 5 -1
          3 5 -1 4 5 -1
          5 5 -1 -5 -5 0
          -4 -5 0 -3 -5 0
          -2 -5 0 -1 -5 0
          0 -5 0 1 -5 0
          2 -5 0 3 -5 0
          4 -5 0 5 -5 0
          -5 -4 0 -4 -4 0
          -3 -4 0 -2 -4 0
          -1 -4 0 0 -4 0
          1 -4 0 2 -4 0
          3 -4 0 4 -4 0
          5 -4 0 -5 -3 0
          -4 -3 0 -3 -3 0
          -2 -3 0 -1 -3 0
          0 -3 0 1 -3 0
          2 -3 0 3 -3 0
          4 -3 0 5 -3 0
          -5 -2 0 -4 -2 0
          -3 -2 0 -2 -2 0
          -1 -2 0 0 -2 0
          1 -2 0 2 -2 0
          3 -2 0 4 -2 0
          5 -2 0 -5 -1 0
          -4 -1 0 -3 -1 0
          -2 -1 0 -1 -1 0
          0 -1 0 1 -1 0
          2 -1 0 3 -1 0
          4 -1 0 5 -1 0
          -5 0 0 -4 0 0
          -3 0 0 -2 0 0
          -1 0 0 0 0 0
          1 0 0 2 0 0
          3 0 0 4 0 0
          5 0 0 -5 1 0
          -4 1 0 -3 1 0
          -2 1 0 -1 1 0
          0 1 0 1 1 0
          2 1 0 3 1 0